### Running on host: s001-n013

     Program PWSCF v.6.7MaX starts on  3Apr2022 at  2:15:21 

     This program is part of the open-source Quantum ESPRESSO suite
     for quantum simulation of materials; please cite
         "P. Giannozzi et al., J. Phys.:Condens. Matter 21 395502 (2009);
         "P. Giannozzi et al., J. Phys.:Condens. Matter 29 465901 (2017);
          URL http://www.quantum-espresso.org", 
     in publications or presentations arising from this work. More details at
     http://www.quantum-espresso.org/quote

     Parallel version (MPI & OpenMP), running on       4 processor cores
     Number of MPI processes:                 4
     Threads/MPI process:                     1

     MPI processes distributed on     1 nodes
     R & G space division:  proc/nbgrp/npool/nimage =       4
     Reading input from bands.in

     Current dimensions of program PWSCF are:
     Max number of different atomic species (ntypx) = 10
     Max number of k-points (npk) =  40000
     Max angular momentum in pseudopotentials (lmaxx) =  3

     Atomic positions and unit cell read from directory:
     ../tmp/silicon.save/
     Atomic positions from file used, from input discarded
 

     Subspace diagonalization in iterative solution of the eigenvalue problem:
     one sub-group per band group will be used
     scalapack distributed-memory algorithm (size of sub-group:  2*  2 procs)

 
     Parallelization info
     --------------------
     sticks:   dense  smooth     PW     G-vecs:    dense   smooth      PW
     Min         354     145     42                 8936     2296     367
     Max         355     146     43                 8940     2297     368
     Sum        1417     583    169                35749     9185    1471
 


     bravais-lattice index     =            2
     lattice parameter (alat)  =      10.2000  a.u.
     unit-cell volume          =     265.3020 (a.u.)^3
     number of atoms/cell      =            2
     number of atomic types    =            1
     number of electrons       =         8.00
     number of Kohn-Sham states=           12
     kinetic-energy cutoff     =      40.0000  Ry
     charge density cutoff     =     400.0000  Ry
     Exchange-correlation= PBESOL
                           (   1   4  10   8   0   0   0)

     celldm(1)=  10.200000  celldm(2)=   0.000000  celldm(3)=   0.000000
     celldm(4)=   0.000000  celldm(5)=   0.000000  celldm(6)=   0.000000

     crystal axes: (cart. coord. in units of alat)
               a(1) = (  -0.500000   0.000000   0.500000 )  
               a(2) = (   0.000000   0.500000   0.500000 )  
               a(3) = (  -0.500000   0.500000   0.000000 )  

     reciprocal axes: (cart. coord. in units 2 pi/alat)
               b(1) = ( -1.000000 -1.000000  1.000000 )  
               b(2) = (  1.000000  1.000000  1.000000 )  
               b(3) = ( -1.000000  1.000000 -1.000000 )  


     PseudoPot. # 1 for Si read from file:
     /home/u148996/espresso/pseudo/Si.pbesol-n-rrkjus_psl.1.0.0.UPF
     MD5 check sum: c4212819de858c94c3a1644338846ac9
     Pseudo is Ultrasoft + core correction, Zval =  4.0
     Generated using "atomic" code by A. Dal Corso  v.6.0 svn rev. 13079
     Using radial grid of 1141 points,  6 beta functions with: 
                l(1) =   0
                l(2) =   0
                l(3) =   1
                l(4) =   1
                l(5) =   2
                l(6) =   2
     Q(r) pseudized with 0 coefficients 


     atomic species   valence    mass     pseudopotential
        Si             4.00    28.00000     Si( 1.00)

     48 Sym. Ops., with inversion, found (24 have fractional translation)


                                    s                        frac. trans.

      isym =  1     identity                                     

 cryst.   s( 1) = (     1          0          0      )
                  (     0          1          0      )
                  (     0          0          1      )

 cart.    s( 1) = (  1.0000000  0.0000000  0.0000000 )
                  (  0.0000000  1.0000000  0.0000000 )
                  (  0.0000000  0.0000000  1.0000000 )


      isym =  2     180 deg rotation - cart. axis [0,0,1]        

 cryst.   s( 2) = (     0          1         -1      )
                  (     1          0         -1      )
                  (     0          0         -1      )

 cart.    s( 2) = ( -1.0000000  0.0000000  0.0000000 )
                  (  0.0000000 -1.0000000  0.0000000 )
                  (  0.0000000  0.0000000  1.0000000 )


      isym =  3     180 deg rotation - cart. axis [0,1,0]        

 cryst.   s( 3) = (    -1          0          0      )
                  (    -1          0          1      )
                  (    -1          1          0      )

 cart.    s( 3) = ( -1.0000000  0.0000000  0.0000000 )
                  (  0.0000000  1.0000000  0.0000000 )
                  (  0.0000000  0.0000000 -1.0000000 )


      isym =  4     180 deg rotation - cart. axis [1,0,0]        

 cryst.   s( 4) = (     0         -1          1      )
                  (     0         -1          0      )
                  (     1         -1          0      )

 cart.    s( 4) = (  1.0000000  0.0000000  0.0000000 )
                  (  0.0000000 -1.0000000  0.0000000 )
                  (  0.0000000  0.0000000 -1.0000000 )


      isym =  5     180 deg rotation - cart. axis [1,1,0]        

 cryst.   s( 5) = (     0         -1          0      )    f =(  0.2500000 )
                  (    -1          0          0      )       (  0.2500000 )
                  (     0          0         -1      )       (  0.2500000 )

 cart.    s( 5) = (  0.0000000  1.0000000  0.0000000 )    f =( -0.2500000 )
                  (  1.0000000  0.0000000  0.0000000 )       (  0.2500000 )
                  (  0.0000000  0.0000000 -1.0000000 )       (  0.2500000 )


      isym =  6     180 deg rotation - cart. axis [1,-1,0]       

 cryst.   s( 6) = (    -1          0          1      )    f =(  0.2500000 )
                  (     0         -1          1      )       (  0.2500000 )
                  (     0          0          1      )       (  0.2500000 )

 cart.    s( 6) = (  0.0000000 -1.0000000  0.0000000 )    f =( -0.2500000 )
                  ( -1.0000000  0.0000000  0.0000000 )       (  0.2500000 )
                  (  0.0000000  0.0000000 -1.0000000 )       (  0.2500000 )


      isym =  7      90 deg rotation - cart. axis [0,0,-1]       

 cryst.   s( 7) = (     0          1          0      )    f =(  0.2500000 )
                  (     0          1         -1      )       (  0.2500000 )
                  (    -1          1          0      )       (  0.2500000 )

 cart.    s( 7) = (  0.0000000  1.0000000  0.0000000 )    f =( -0.2500000 )
                  ( -1.0000000  0.0000000  0.0000000 )       (  0.2500000 )
                  (  0.0000000  0.0000000  1.0000000 )       (  0.2500000 )


      isym =  8      90 deg rotation - cart. axis [0,0,1]        

 cryst.   s( 8) = (     1          0         -1      )    f =(  0.2500000 )
                  (     1          0          0      )       (  0.2500000 )
                  (     1         -1          0      )       (  0.2500000 )

 cart.    s( 8) = (  0.0000000 -1.0000000  0.0000000 )    f =( -0.2500000 )
                  (  1.0000000  0.0000000  0.0000000 )       (  0.2500000 )
                  (  0.0000000  0.0000000  1.0000000 )       (  0.2500000 )


      isym =  9     180 deg rotation - cart. axis [1,0,1]        

 cryst.   s( 9) = (    -1          0          0      )    f =(  0.2500000 )
                  (     0          0         -1      )       (  0.2500000 )
                  (     0         -1          0      )       (  0.2500000 )

 cart.    s( 9) = (  0.0000000  0.0000000  1.0000000 )    f =( -0.2500000 )
                  (  0.0000000 -1.0000000  0.0000000 )       (  0.2500000 )
                  (  1.0000000  0.0000000  0.0000000 )       (  0.2500000 )


      isym = 10     180 deg rotation - cart. axis [-1,0,1]       

 cryst.   s(10) = (     1          0          0      )    f =(  0.2500000 )
                  (     1         -1          0      )       (  0.2500000 )
                  (     1          0         -1      )       (  0.2500000 )

 cart.    s(10) = (  0.0000000  0.0000000 -1.0000000 )    f =( -0.2500000 )
                  (  0.0000000 -1.0000000  0.0000000 )       (  0.2500000 )
                  ( -1.0000000  0.0000000  0.0000000 )       (  0.2500000 )


      isym = 11      90 deg rotation - cart. axis [0,1,0]        

 cryst.   s(11) = (     0          1         -1      )    f =(  0.2500000 )
                  (    -1          1          0      )       (  0.2500000 )
                  (     0          1          0      )       (  0.2500000 )

 cart.    s(11) = (  0.0000000  0.0000000  1.0000000 )    f =( -0.2500000 )
                  (  0.0000000  1.0000000  0.0000000 )       (  0.2500000 )
                  ( -1.0000000  0.0000000  0.0000000 )       (  0.2500000 )


      isym = 12      90 deg rotation - cart. axis [0,-1,0]       

 cryst.   s(12) = (     0         -1          1      )    f =(  0.2500000 )
                  (     0          0          1      )       (  0.2500000 )
                  (    -1          0          1      )       (  0.2500000 )

 cart.    s(12) = (  0.0000000  0.0000000 -1.0000000 )    f =( -0.2500000 )
                  (  0.0000000  1.0000000  0.0000000 )       (  0.2500000 )
                  (  1.0000000  0.0000000  0.0000000 )       (  0.2500000 )


      isym = 13     180 deg rotation - cart. axis [0,1,1]        

 cryst.   s(13) = (    -1          1          0      )    f =(  0.2500000 )
                  (     0          1          0      )       (  0.2500000 )
                  (     0          1         -1      )       (  0.2500000 )

 cart.    s(13) = ( -1.0000000  0.0000000  0.0000000 )    f =( -0.2500000 )
                  (  0.0000000  0.0000000  1.0000000 )       (  0.2500000 )
                  (  0.0000000  1.0000000  0.0000000 )       (  0.2500000 )


      isym = 14     180 deg rotation - cart. axis [0,1,-1]       

 cryst.   s(14) = (     0          0         -1      )    f =(  0.2500000 )
                  (     0         -1          0      )       (  0.2500000 )
                  (    -1          0          0      )       (  0.2500000 )

 cart.    s(14) = ( -1.0000000  0.0000000  0.0000000 )    f =( -0.2500000 )
                  (  0.0000000  0.0000000 -1.0000000 )       (  0.2500000 )
                  (  0.0000000 -1.0000000  0.0000000 )       (  0.2500000 )


      isym = 15      90 deg rotation - cart. axis [-1,0,0]       

 cryst.   s(15) = (     0          0          1      )    f =(  0.2500000 )
                  (    -1          0          1      )       (  0.2500000 )
                  (     0         -1          1      )       (  0.2500000 )

 cart.    s(15) = (  1.0000000  0.0000000  0.0000000 )    f =( -0.2500000 )
                  (  0.0000000  0.0000000  1.0000000 )       (  0.2500000 )
                  (  0.0000000 -1.0000000  0.0000000 )       (  0.2500000 )


      isym = 16      90 deg rotation - cart. axis [1,0,0]        

 cryst.   s(16) = (     1         -1          0      )    f =(  0.2500000 )
                  (     1          0         -1      )       (  0.2500000 )
                  (     1          0          0      )       (  0.2500000 )

 cart.    s(16) = (  1.0000000  0.0000000  0.0000000 )    f =( -0.2500000 )
                  (  0.0000000  0.0000000 -1.0000000 )       (  0.2500000 )
                  (  0.0000000  1.0000000  0.0000000 )       (  0.2500000 )


      isym = 17     120 deg rotation - cart. axis [-1,-1,-1]     

 cryst.   s(17) = (    -1          0          1      )
                  (    -1          1          0      )
                  (    -1          0          0      )

 cart.    s(17) = (  0.0000000  1.0000000  0.0000000 )
                  (  0.0000000  0.0000000  1.0000000 )
                  (  1.0000000  0.0000000  0.0000000 )


      isym = 18     120 deg rotation - cart. axis [-1,1,1]       

 cryst.   s(18) = (     0          1          0      )
                  (     0          0          1      )
                  (     1          0          0      )

 cart.    s(18) = (  0.0000000 -1.0000000  0.0000000 )
                  (  0.0000000  0.0000000  1.0000000 )
                  ( -1.0000000  0.0000000  0.0000000 )


      isym = 19     120 deg rotation - cart. axis [1,1,-1]       

 cryst.   s(19) = (     1          0         -1      )
                  (     0          0         -1      )
                  (     0          1         -1      )

 cart.    s(19) = (  0.0000000  1.0000000  0.0000000 )
                  (  0.0000000  0.0000000 -1.0000000 )
                  ( -1.0000000  0.0000000  0.0000000 )


      isym = 20     120 deg rotation - cart. axis [1,-1,1]       

 cryst.   s(20) = (     0         -1          0      )
                  (     1         -1          0      )
                  (     0         -1          1      )

 cart.    s(20) = (  0.0000000 -1.0000000  0.0000000 )
                  (  0.0000000  0.0000000 -1.0000000 )
                  (  1.0000000  0.0000000  0.0000000 )


      isym = 21     120 deg rotation - cart. axis [1,1,1]        

 cryst.   s(21) = (     0          0         -1      )
                  (     0          1         -1      )
                  (     1          0         -1      )

 cart.    s(21) = (  0.0000000  0.0000000  1.0000000 )
                  (  1.0000000  0.0000000  0.0000000 )
                  (  0.0000000  1.0000000  0.0000000 )


      isym = 22     120 deg rotation - cart. axis [-1,1,-1]      

 cryst.   s(22) = (    -1          1          0      )
                  (    -1          0          0      )
                  (    -1          0          1      )

 cart.    s(22) = (  0.0000000  0.0000000  1.0000000 )
                  ( -1.0000000  0.0000000  0.0000000 )
                  (  0.0000000 -1.0000000  0.0000000 )


      isym = 23     120 deg rotation - cart. axis [1,-1,-1]      

 cryst.   s(23) = (     0          0          1      )
                  (     1          0          0      )
                  (     0          1          0      )

 cart.    s(23) = (  0.0000000  0.0000000 -1.0000000 )
                  ( -1.0000000  0.0000000  0.0000000 )
                  (  0.0000000  1.0000000  0.0000000 )


      isym = 24     120 deg rotation - cart. axis [-1,-1,1]      

 cryst.   s(24) = (     1         -1          0      )
                  (     0         -1          1      )
                  (     0         -1          0      )

 cart.    s(24) = (  0.0000000  0.0000000 -1.0000000 )
                  (  1.0000000  0.0000000  0.0000000 )
                  (  0.0000000 -1.0000000  0.0000000 )


      isym = 25     inversion                                    

 cryst.   s(25) = (    -1          0          0      )    f =(  0.2500000 )
                  (     0         -1          0      )       (  0.2500000 )
                  (     0          0         -1      )       (  0.2500000 )

 cart.    s(25) = ( -1.0000000  0.0000000  0.0000000 )    f =( -0.2500000 )
                  (  0.0000000 -1.0000000  0.0000000 )       (  0.2500000 )
                  (  0.0000000  0.0000000 -1.0000000 )       (  0.2500000 )


      isym = 26     inv. 180 deg rotation - cart. axis [0,0,1]   

 cryst.   s(26) = (     0         -1          1      )    f =(  0.2500000 )
                  (    -1          0          1      )       (  0.2500000 )
                  (     0          0          1      )       (  0.2500000 )

 cart.    s(26) = (  1.0000000  0.0000000  0.0000000 )    f =( -0.2500000 )
                  (  0.0000000  1.0000000  0.0000000 )       (  0.2500000 )
                  (  0.0000000  0.0000000 -1.0000000 )       (  0.2500000 )


      isym = 27     inv. 180 deg rotation - cart. axis [0,1,0]   

 cryst.   s(27) = (     1          0          0      )    f =(  0.2500000 )
                  (     1          0         -1      )       (  0.2500000 )
                  (     1         -1          0      )       (  0.2500000 )

 cart.    s(27) = (  1.0000000  0.0000000  0.0000000 )    f =( -0.2500000 )
                  (  0.0000000 -1.0000000  0.0000000 )       (  0.2500000 )
                  (  0.0000000  0.0000000  1.0000000 )       (  0.2500000 )


      isym = 28     inv. 180 deg rotation - cart. axis [1,0,0]   

 cryst.   s(28) = (     0          1         -1      )    f =(  0.2500000 )
                  (     0          1          0      )       (  0.2500000 )
                  (    -1          1          0      )       (  0.2500000 )

 cart.    s(28) = ( -1.0000000  0.0000000  0.0000000 )    f =( -0.2500000 )
                  (  0.0000000  1.0000000  0.0000000 )       (  0.2500000 )
                  (  0.0000000  0.0000000  1.0000000 )       (  0.2500000 )


      isym = 29     inv. 180 deg rotation - cart. axis [1,1,0]   

 cryst.   s(29) = (     0          1          0      )
                  (     1          0          0      )
                  (     0          0          1      )

 cart.    s(29) = (  0.0000000 -1.0000000  0.0000000 )
                  ( -1.0000000  0.0000000  0.0000000 )
                  (  0.0000000  0.0000000  1.0000000 )


      isym = 30     inv. 180 deg rotation - cart. axis [1,-1,0]  

 cryst.   s(30) = (     1          0         -1      )
                  (     0          1         -1      )
                  (     0          0         -1      )

 cart.    s(30) = (  0.0000000  1.0000000  0.0000000 )
                  (  1.0000000  0.0000000  0.0000000 )
                  (  0.0000000  0.0000000  1.0000000 )


      isym = 31     inv.  90 deg rotation - cart. axis [0,0,-1]  

 cryst.   s(31) = (     0         -1          0      )
                  (     0         -1          1      )
                  (     1         -1          0      )

 cart.    s(31) = (  0.0000000 -1.0000000  0.0000000 )
                  (  1.0000000  0.0000000  0.0000000 )
                  (  0.0000000  0.0000000 -1.0000000 )


      isym = 32     inv.  90 deg rotation - cart. axis [0,0,1]   

 cryst.   s(32) = (    -1          0          1      )
                  (    -1          0          0      )
                  (    -1          1          0      )

 cart.    s(32) = (  0.0000000  1.0000000  0.0000000 )
                  ( -1.0000000  0.0000000  0.0000000 )
                  (  0.0000000  0.0000000 -1.0000000 )


      isym = 33     inv. 180 deg rotation - cart. axis [1,0,1]   

 cryst.   s(33) = (     1          0          0      )
                  (     0          0          1      )
                  (     0          1          0      )

 cart.    s(33) = (  0.0000000  0.0000000 -1.0000000 )
                  (  0.0000000  1.0000000  0.0000000 )
                  ( -1.0000000  0.0000000  0.0000000 )


      isym = 34     inv. 180 deg rotation - cart. axis [-1,0,1]  

 cryst.   s(34) = (    -1          0          0      )
                  (    -1          1          0      )
                  (    -1          0          1      )

 cart.    s(34) = (  0.0000000  0.0000000  1.0000000 )
                  (  0.0000000  1.0000000  0.0000000 )
                  (  1.0000000  0.0000000  0.0000000 )


      isym = 35     inv.  90 deg rotation - cart. axis [0,1,0]   

 cryst.   s(35) = (     0         -1          1      )
                  (     1         -1          0      )
                  (     0         -1          0      )

 cart.    s(35) = (  0.0000000  0.0000000 -1.0000000 )
                  (  0.0000000 -1.0000000  0.0000000 )
                  (  1.0000000  0.0000000  0.0000000 )


      isym = 36     inv.  90 deg rotation - cart. axis [0,-1,0]  

 cryst.   s(36) = (     0          1         -1      )
                  (     0          0         -1      )
                  (     1          0         -1      )

 cart.    s(36) = (  0.0000000  0.0000000  1.0000000 )
                  (  0.0000000 -1.0000000  0.0000000 )
                  ( -1.0000000  0.0000000  0.0000000 )


      isym = 37     inv. 180 deg rotation - cart. axis [0,1,1]   

 cryst.   s(37) = (     1         -1          0      )
                  (     0         -1          0      )
                  (     0         -1          1      )

 cart.    s(37) = (  1.0000000  0.0000000  0.0000000 )
                  (  0.0000000  0.0000000 -1.0000000 )
                  (  0.0000000 -1.0000000  0.0000000 )


      isym = 38     inv. 180 deg rotation - cart. axis [0,1,-1]  

 cryst.   s(38) = (     0          0          1      )
                  (     0          1          0      )
                  (     1          0          0      )

 cart.    s(38) = (  1.0000000  0.0000000  0.0000000 )
                  (  0.0000000  0.0000000  1.0000000 )
                  (  0.0000000  1.0000000  0.0000000 )


      isym = 39     inv.  90 deg rotation - cart. axis [-1,0,0]  

 cryst.   s(39) = (     0          0         -1      )
                  (     1          0         -1      )
                  (     0          1         -1      )

 cart.    s(39) = ( -1.0000000  0.0000000  0.0000000 )
                  (  0.0000000  0.0000000 -1.0000000 )
                  (  0.0000000  1.0000000  0.0000000 )


      isym = 40     inv.  90 deg rotation - cart. axis [1,0,0]   

 cryst.   s(40) = (    -1          1          0      )
                  (    -1          0          1      )
                  (    -1          0          0      )

 cart.    s(40) = ( -1.0000000  0.0000000  0.0000000 )
                  (  0.0000000  0.0000000  1.0000000 )
                  (  0.0000000 -1.0000000  0.0000000 )


      isym = 41     inv. 120 deg rotation - cart. axis [-1,-1,-1]

 cryst.   s(41) = (     1          0         -1      )    f =(  0.2500000 )
                  (     1         -1          0      )       (  0.2500000 )
                  (     1          0          0      )       (  0.2500000 )

 cart.    s(41) = (  0.0000000 -1.0000000  0.0000000 )    f =( -0.2500000 )
                  (  0.0000000  0.0000000 -1.0000000 )       (  0.2500000 )
                  ( -1.0000000  0.0000000  0.0000000 )       (  0.2500000 )


      isym = 42     inv. 120 deg rotation - cart. axis [-1,1,1]  

 cryst.   s(42) = (     0         -1          0      )    f =(  0.2500000 )
                  (     0          0         -1      )       (  0.2500000 )
                  (    -1          0          0      )       (  0.2500000 )

 cart.    s(42) = (  0.0000000  1.0000000  0.0000000 )    f =( -0.2500000 )
                  (  0.0000000  0.0000000 -1.0000000 )       (  0.2500000 )
                  (  1.0000000  0.0000000  0.0000000 )       (  0.2500000 )


      isym = 43     inv. 120 deg rotation - cart. axis [1,1,-1]  

 cryst.   s(43) = (    -1          0          1      )    f =(  0.2500000 )
                  (     0          0          1      )       (  0.2500000 )
                  (     0         -1          1      )       (  0.2500000 )

 cart.    s(43) = (  0.0000000 -1.0000000  0.0000000 )    f =( -0.2500000 )
                  (  0.0000000  0.0000000  1.0000000 )       (  0.2500000 )
                  (  1.0000000  0.0000000  0.0000000 )       (  0.2500000 )


      isym = 44     inv. 120 deg rotation - cart. axis [1,-1,1]  

 cryst.   s(44) = (     0          1          0      )    f =(  0.2500000 )
                  (    -1          1          0      )       (  0.2500000 )
                  (     0          1         -1      )       (  0.2500000 )

 cart.    s(44) = (  0.0000000  1.0000000  0.0000000 )    f =( -0.2500000 )
                  (  0.0000000  0.0000000  1.0000000 )       (  0.2500000 )
                  ( -1.0000000  0.0000000  0.0000000 )       (  0.2500000 )


      isym = 45     inv. 120 deg rotation - cart. axis [1,1,1]   

 cryst.   s(45) = (     0          0          1      )    f =(  0.2500000 )
                  (     0         -1          1      )       (  0.2500000 )
                  (    -1          0          1      )       (  0.2500000 )

 cart.    s(45) = (  0.0000000  0.0000000 -1.0000000 )    f =( -0.2500000 )
                  ( -1.0000000  0.0000000  0.0000000 )       (  0.2500000 )
                  (  0.0000000 -1.0000000  0.0000000 )       (  0.2500000 )


      isym = 46     inv. 120 deg rotation - cart. axis [-1,1,-1] 

 cryst.   s(46) = (     1         -1          0      )    f =(  0.2500000 )
                  (     1          0          0      )       (  0.2500000 )
                  (     1          0         -1      )       (  0.2500000 )

 cart.    s(46) = (  0.0000000  0.0000000 -1.0000000 )    f =( -0.2500000 )
                  (  1.0000000  0.0000000  0.0000000 )       (  0.2500000 )
                  (  0.0000000  1.0000000  0.0000000 )       (  0.2500000 )


      isym = 47     inv. 120 deg rotation - cart. axis [1,-1,-1] 

 cryst.   s(47) = (     0          0         -1      )    f =(  0.2500000 )
                  (    -1          0          0      )       (  0.2500000 )
                  (     0         -1          0      )       (  0.2500000 )

 cart.    s(47) = (  0.0000000  0.0000000  1.0000000 )    f =( -0.2500000 )
                  (  1.0000000  0.0000000  0.0000000 )       (  0.2500000 )
                  (  0.0000000 -1.0000000  0.0000000 )       (  0.2500000 )


      isym = 48     inv. 120 deg rotation - cart. axis [-1,-1,1] 

 cryst.   s(48) = (    -1          1          0      )    f =(  0.2500000 )
                  (     0          1         -1      )       (  0.2500000 )
                  (     0          1          0      )       (  0.2500000 )

 cart.    s(48) = (  0.0000000  0.0000000  1.0000000 )    f =( -0.2500000 )
                  ( -1.0000000  0.0000000  0.0000000 )       (  0.2500000 )
                  (  0.0000000  1.0000000  0.0000000 )       (  0.2500000 )


     point group O_h (m-3m) 
     there are 10 classes
     the character table:

       E     8C3   3C2   6C4   6C2'  i     8S6   3s_h  6S4   6s_d 
A_1g   1.00  1.00  1.00  1.00  1.00  1.00  1.00  1.00  1.00  1.00
A_2g   1.00  1.00  1.00 -1.00 -1.00  1.00  1.00  1.00 -1.00 -1.00
E_g    2.00 -1.00  2.00  0.00  0.00  2.00 -1.00  2.00  0.00  0.00
T_1g   3.00  0.00 -1.00  1.00 -1.00  3.00  0.00 -1.00  1.00 -1.00
T_2g   3.00  0.00 -1.00 -1.00  1.00  3.00  0.00 -1.00 -1.00  1.00
A_1u   1.00  1.00  1.00  1.00  1.00 -1.00 -1.00 -1.00 -1.00 -1.00
A_2u   1.00  1.00  1.00 -1.00 -1.00 -1.00 -1.00 -1.00  1.00  1.00
E_u    2.00 -1.00  2.00  0.00  0.00 -2.00  1.00 -2.00  0.00  0.00
T_1u   3.00  0.00 -1.00  1.00 -1.00 -3.00  0.00  1.00 -1.00  1.00
T_2u   3.00  0.00 -1.00 -1.00  1.00 -3.00  0.00  1.00  1.00 -1.00

     the symmetry operations in each class and the name of the first element:

     E        1
          identity                                               
     8C3     17   19   20   18   24   21   22   23
          120 deg rotation - cart. axis [-1,-1,-1]               
     3C2      2    4    3
          180 deg rotation - cart. axis [0,0,1]                  
     6C4      7    8   15   16   12   11
           90 deg rotation - cart. axis [0,0,-1]                 
     6C2'     5    6   14   13   10    9
          180 deg rotation - cart. axis [1,1,0]                  
     i       25
          inversion                                              
     8S6     41   43   44   42   48   45   46   47
          inv. 120 deg rotation - cart. axis [-1,-1,-1]          
     3s_h    26   28   27
          inv. 180 deg rotation - cart. axis [0,0,1]             
     6S4     31   32   39   40   36   35
          inv.  90 deg rotation - cart. axis [0,0,-1]            
     6s_d    29   30   38   37   34   33
          inv. 180 deg rotation - cart. axis [1,1,0]             

   Cartesian axes

     site n.     atom                  positions (alat units)
         1           Si  tau(   1) = (   0.2500000   0.2500000   0.2500000  )
         2           Si  tau(   2) = (   0.0000000   0.0000000   0.0000000  )

   Crystallographic axes

     site n.     atom                  positions (cryst. coord.)
         1           Si  tau(   1) = ( -0.2500000  0.7500000 -0.2500000  )
         2           Si  tau(   2) = (  0.0000000  0.0000000  0.0000000  )

     number of k points=    91  Marzari-Vanderbilt smearing, width (Ry)=  0.0100
                       cart. coord. in units 2pi/alat
        k(    1) = (   0.5000000   0.5000000   0.5000000), wk =   0.0219780
        k(    2) = (   0.4750000   0.4750000   0.4750000), wk =   0.0219780
        k(    3) = (   0.4500000   0.4500000   0.4500000), wk =   0.0219780
        k(    4) = (   0.4250000   0.4250000   0.4250000), wk =   0.0219780
        k(    5) = (   0.4000000   0.4000000   0.4000000), wk =   0.0219780
        k(    6) = (   0.3750000   0.3750000   0.3750000), wk =   0.0219780
        k(    7) = (   0.3500000   0.3500000   0.3500000), wk =   0.0219780
        k(    8) = (   0.3250000   0.3250000   0.3250000), wk =   0.0219780
        k(    9) = (   0.3000000   0.3000000   0.3000000), wk =   0.0219780
        k(   10) = (   0.2750000   0.2750000   0.2750000), wk =   0.0219780
        k(   11) = (   0.2500000   0.2500000   0.2500000), wk =   0.0219780
        k(   12) = (   0.2250000   0.2250000   0.2250000), wk =   0.0219780
        k(   13) = (   0.2000000   0.2000000   0.2000000), wk =   0.0219780
        k(   14) = (   0.1750000   0.1750000   0.1750000), wk =   0.0219780
        k(   15) = (   0.1500000   0.1500000   0.1500000), wk =   0.0219780
        k(   16) = (   0.1250000   0.1250000   0.1250000), wk =   0.0219780
        k(   17) = (   0.1000000   0.1000000   0.1000000), wk =   0.0219780
        k(   18) = (   0.0750000   0.0750000   0.0750000), wk =   0.0219780
        k(   19) = (   0.0500000   0.0500000   0.0500000), wk =   0.0219780
        k(   20) = (   0.0250000   0.0250000   0.0250000), wk =   0.0219780
        k(   21) = (   0.0000000   0.0000000   0.0000000), wk =   0.0219780
        k(   22) = (   0.0333333   0.0000000   0.0000000), wk =   0.0219780
        k(   23) = (   0.0666667   0.0000000   0.0000000), wk =   0.0219780
        k(   24) = (   0.1000000   0.0000000   0.0000000), wk =   0.0219780
        k(   25) = (   0.1333333   0.0000000   0.0000000), wk =   0.0219780
        k(   26) = (   0.1666667   0.0000000   0.0000000), wk =   0.0219780
        k(   27) = (   0.2000000   0.0000000   0.0000000), wk =   0.0219780
        k(   28) = (   0.2333333   0.0000000   0.0000000), wk =   0.0219780
        k(   29) = (   0.2666667   0.0000000   0.0000000), wk =   0.0219780
        k(   30) = (   0.3000000   0.0000000   0.0000000), wk =   0.0219780
        k(   31) = (   0.3333333   0.0000000   0.0000000), wk =   0.0219780
        k(   32) = (   0.3666667   0.0000000   0.0000000), wk =   0.0219780
        k(   33) = (   0.4000000   0.0000000   0.0000000), wk =   0.0219780
        k(   34) = (   0.4333333   0.0000000   0.0000000), wk =   0.0219780
        k(   35) = (   0.4666667   0.0000000   0.0000000), wk =   0.0219780
        k(   36) = (   0.5000000   0.0000000   0.0000000), wk =   0.0219780
        k(   37) = (   0.5333333   0.0000000   0.0000000), wk =   0.0219780
        k(   38) = (   0.5666667   0.0000000   0.0000000), wk =   0.0219780
        k(   39) = (   0.6000000   0.0000000   0.0000000), wk =   0.0219780
        k(   40) = (   0.6333333   0.0000000   0.0000000), wk =   0.0219780
        k(   41) = (   0.6666667   0.0000000   0.0000000), wk =   0.0219780
        k(   42) = (   0.7000000   0.0000000   0.0000000), wk =   0.0219780
        k(   43) = (   0.7333333   0.0000000   0.0000000), wk =   0.0219780
        k(   44) = (   0.7666667   0.0000000   0.0000000), wk =   0.0219780
        k(   45) = (   0.8000000   0.0000000   0.0000000), wk =   0.0219780
        k(   46) = (   0.8333333   0.0000000   0.0000000), wk =   0.0219780
        k(   47) = (   0.8666667   0.0000000   0.0000000), wk =   0.0219780
        k(   48) = (   0.9000000   0.0000000   0.0000000), wk =   0.0219780
        k(   49) = (   0.9333333   0.0000000   0.0000000), wk =   0.0219780
        k(   50) = (   0.9666667   0.0000000   0.0000000), wk =   0.0219780
        k(   51) = (   1.0000000   0.0000000   0.0000000), wk =   0.0219780
        k(   52) = (   1.0000000   0.0250000   0.0250000), wk =   0.0219780
        k(   53) = (   1.0000000   0.0500000   0.0500000), wk =   0.0219780
        k(   54) = (   1.0000000   0.0750000   0.0750000), wk =   0.0219780
        k(   55) = (   1.0000000   0.1000000   0.1000000), wk =   0.0219780
        k(   56) = (   1.0000000   0.1250000   0.1250000), wk =   0.0219780
        k(   57) = (   1.0000000   0.1500000   0.1500000), wk =   0.0219780
        k(   58) = (   1.0000000   0.1750000   0.1750000), wk =   0.0219780
        k(   59) = (   1.0000000   0.2000000   0.2000000), wk =   0.0219780
        k(   60) = (   1.0000000   0.2250000   0.2250000), wk =   0.0219780
        k(   61) = (   1.0000000   0.2500000   0.2500000), wk =   0.0219780
        k(   62) = (   0.9666667   0.2416667   0.2416667), wk =   0.0219780
        k(   63) = (   0.9333333   0.2333333   0.2333333), wk =   0.0219780
        k(   64) = (   0.9000000   0.2250000   0.2250000), wk =   0.0219780
        k(   65) = (   0.8666667   0.2166667   0.2166667), wk =   0.0219780
        k(   66) = (   0.8333333   0.2083333   0.2083333), wk =   0.0219780
        k(   67) = (   0.8000000   0.2000000   0.2000000), wk =   0.0219780
        k(   68) = (   0.7666667   0.1916667   0.1916667), wk =   0.0219780
        k(   69) = (   0.7333333   0.1833333   0.1833333), wk =   0.0219780
        k(   70) = (   0.7000000   0.1750000   0.1750000), wk =   0.0219780
        k(   71) = (   0.6666667   0.1666667   0.1666667), wk =   0.0219780
        k(   72) = (   0.6333333   0.1583333   0.1583333), wk =   0.0219780
        k(   73) = (   0.6000000   0.1500000   0.1500000), wk =   0.0219780
        k(   74) = (   0.5666667   0.1416667   0.1416667), wk =   0.0219780
        k(   75) = (   0.5333333   0.1333333   0.1333333), wk =   0.0219780
        k(   76) = (   0.5000000   0.1250000   0.1250000), wk =   0.0219780
        k(   77) = (   0.4666667   0.1166667   0.1166667), wk =   0.0219780
        k(   78) = (   0.4333333   0.1083333   0.1083333), wk =   0.0219780
        k(   79) = (   0.4000000   0.1000000   0.1000000), wk =   0.0219780
        k(   80) = (   0.3666667   0.0916667   0.0916667), wk =   0.0219780
        k(   81) = (   0.3333333   0.0833333   0.0833333), wk =   0.0219780
        k(   82) = (   0.3000000   0.0750000   0.0750000), wk =   0.0219780
        k(   83) = (   0.2666667   0.0666667   0.0666667), wk =   0.0219780
        k(   84) = (   0.2333333   0.0583333   0.0583333), wk =   0.0219780
        k(   85) = (   0.2000000   0.0500000   0.0500000), wk =   0.0219780
        k(   86) = (   0.1666667   0.0416667   0.0416667), wk =   0.0219780
        k(   87) = (   0.1333333   0.0333333   0.0333333), wk =   0.0219780
        k(   88) = (   0.1000000   0.0250000   0.0250000), wk =   0.0219780
        k(   89) = (   0.0666667   0.0166667   0.0166667), wk =   0.0219780
        k(   90) = (   0.0333333   0.0083333   0.0083333), wk =   0.0219780
        k(   91) = (   0.0000000   0.0000000   0.0000000), wk =   0.0219780

                       cryst. coord.
        k(    1) = (   0.0000000   0.5000000   0.0000000), wk =   0.0219780
        k(    2) = (   0.0000000   0.4750000   0.0000000), wk =   0.0219780
        k(    3) = (   0.0000000   0.4500000   0.0000000), wk =   0.0219780
        k(    4) = (   0.0000000   0.4250000   0.0000000), wk =   0.0219780
        k(    5) = (   0.0000000   0.4000000   0.0000000), wk =   0.0219780
        k(    6) = (   0.0000000   0.3750000   0.0000000), wk =   0.0219780
        k(    7) = (   0.0000000   0.3500000   0.0000000), wk =   0.0219780
        k(    8) = (   0.0000000   0.3250000   0.0000000), wk =   0.0219780
        k(    9) = (   0.0000000   0.3000000   0.0000000), wk =   0.0219780
        k(   10) = (   0.0000000   0.2750000   0.0000000), wk =   0.0219780
        k(   11) = (   0.0000000   0.2500000   0.0000000), wk =   0.0219780
        k(   12) = (   0.0000000   0.2250000   0.0000000), wk =   0.0219780
        k(   13) = (   0.0000000   0.2000000   0.0000000), wk =   0.0219780
        k(   14) = (   0.0000000   0.1750000   0.0000000), wk =   0.0219780
        k(   15) = (   0.0000000   0.1500000   0.0000000), wk =   0.0219780
        k(   16) = (   0.0000000   0.1250000   0.0000000), wk =   0.0219780
        k(   17) = (   0.0000000   0.1000000   0.0000000), wk =   0.0219780
        k(   18) = (   0.0000000   0.0750000   0.0000000), wk =   0.0219780
        k(   19) = (   0.0000000   0.0500000   0.0000000), wk =   0.0219780
        k(   20) = (   0.0000000   0.0250000   0.0000000), wk =   0.0219780
        k(   21) = (   0.0000000   0.0000000   0.0000000), wk =   0.0219780
        k(   22) = (  -0.0166667   0.0000000  -0.0166667), wk =   0.0219780
        k(   23) = (  -0.0333333   0.0000000  -0.0333333), wk =   0.0219780
        k(   24) = (  -0.0500000   0.0000000  -0.0500000), wk =   0.0219780
        k(   25) = (  -0.0666667   0.0000000  -0.0666667), wk =   0.0219780
        k(   26) = (  -0.0833333   0.0000000  -0.0833333), wk =   0.0219780
        k(   27) = (  -0.1000000   0.0000000  -0.1000000), wk =   0.0219780
        k(   28) = (  -0.1166667   0.0000000  -0.1166667), wk =   0.0219780
        k(   29) = (  -0.1333333   0.0000000  -0.1333333), wk =   0.0219780
        k(   30) = (  -0.1500000   0.0000000  -0.1500000), wk =   0.0219780
        k(   31) = (  -0.1666667   0.0000000  -0.1666667), wk =   0.0219780
        k(   32) = (  -0.1833333   0.0000000  -0.1833333), wk =   0.0219780
        k(   33) = (  -0.2000000   0.0000000  -0.2000000), wk =   0.0219780
        k(   34) = (  -0.2166667   0.0000000  -0.2166667), wk =   0.0219780
        k(   35) = (  -0.2333333   0.0000000  -0.2333333), wk =   0.0219780
        k(   36) = (  -0.2500000   0.0000000  -0.2500000), wk =   0.0219780
        k(   37) = (  -0.2666667   0.0000000  -0.2666667), wk =   0.0219780
        k(   38) = (  -0.2833333   0.0000000  -0.2833333), wk =   0.0219780
        k(   39) = (  -0.3000000   0.0000000  -0.3000000), wk =   0.0219780
        k(   40) = (  -0.3166667   0.0000000  -0.3166667), wk =   0.0219780
        k(   41) = (  -0.3333333   0.0000000  -0.3333333), wk =   0.0219780
        k(   42) = (  -0.3500000   0.0000000  -0.3500000), wk =   0.0219780
        k(   43) = (  -0.3666667   0.0000000  -0.3666667), wk =   0.0219780
        k(   44) = (  -0.3833333   0.0000000  -0.3833333), wk =   0.0219780
        k(   45) = (  -0.4000000   0.0000000  -0.4000000), wk =   0.0219780
        k(   46) = (  -0.4166667   0.0000000  -0.4166667), wk =   0.0219780
        k(   47) = (  -0.4333333   0.0000000  -0.4333333), wk =   0.0219780
        k(   48) = (  -0.4500000   0.0000000  -0.4500000), wk =   0.0219780
        k(   49) = (  -0.4666667   0.0000000  -0.4666667), wk =   0.0219780
        k(   50) = (  -0.4833333   0.0000000  -0.4833333), wk =   0.0219780
        k(   51) = (  -0.5000000   0.0000000  -0.5000000), wk =   0.0219780
        k(   52) = (  -0.4875000   0.0250000  -0.4875000), wk =   0.0219780
        k(   53) = (  -0.4750000   0.0500000  -0.4750000), wk =   0.0219780
        k(   54) = (  -0.4625000   0.0750000  -0.4625000), wk =   0.0219780
        k(   55) = (  -0.4500000   0.1000000  -0.4500000), wk =   0.0219780
        k(   56) = (  -0.4375000   0.1250000  -0.4375000), wk =   0.0219780
        k(   57) = (  -0.4250000   0.1500000  -0.4250000), wk =   0.0219780
        k(   58) = (  -0.4125000   0.1750000  -0.4125000), wk =   0.0219780
        k(   59) = (  -0.4000000   0.2000000  -0.4000000), wk =   0.0219780
        k(   60) = (  -0.3875000   0.2250000  -0.3875000), wk =   0.0219780
        k(   61) = (  -0.3750000   0.2500000  -0.3750000), wk =   0.0219780
        k(   62) = (  -0.3625000   0.2416667  -0.3625000), wk =   0.0219780
        k(   63) = (  -0.3500000   0.2333333  -0.3500000), wk =   0.0219780
        k(   64) = (  -0.3375000   0.2250000  -0.3375000), wk =   0.0219780
        k(   65) = (  -0.3250000   0.2166667  -0.3250000), wk =   0.0219780
        k(   66) = (  -0.3125000   0.2083333  -0.3125000), wk =   0.0219780
        k(   67) = (  -0.3000000   0.2000000  -0.3000000), wk =   0.0219780
        k(   68) = (  -0.2875000   0.1916667  -0.2875000), wk =   0.0219780
        k(   69) = (  -0.2750000   0.1833333  -0.2750000), wk =   0.0219780
        k(   70) = (  -0.2625000   0.1750000  -0.2625000), wk =   0.0219780
        k(   71) = (  -0.2500000   0.1666667  -0.2500000), wk =   0.0219780
        k(   72) = (  -0.2375000   0.1583333  -0.2375000), wk =   0.0219780
        k(   73) = (  -0.2250000   0.1500000  -0.2250000), wk =   0.0219780
        k(   74) = (  -0.2125000   0.1416667  -0.2125000), wk =   0.0219780
        k(   75) = (  -0.2000000   0.1333333  -0.2000000), wk =   0.0219780
        k(   76) = (  -0.1875000   0.1250000  -0.1875000), wk =   0.0219780
        k(   77) = (  -0.1750000   0.1166667  -0.1750000), wk =   0.0219780
        k(   78) = (  -0.1625000   0.1083333  -0.1625000), wk =   0.0219780
        k(   79) = (  -0.1500000   0.1000000  -0.1500000), wk =   0.0219780
        k(   80) = (  -0.1375000   0.0916667  -0.1375000), wk =   0.0219780
        k(   81) = (  -0.1250000   0.0833333  -0.1250000), wk =   0.0219780
        k(   82) = (  -0.1125000   0.0750000  -0.1125000), wk =   0.0219780
        k(   83) = (  -0.1000000   0.0666667  -0.1000000), wk =   0.0219780
        k(   84) = (  -0.0875000   0.0583333  -0.0875000), wk =   0.0219780
        k(   85) = (  -0.0750000   0.0500000  -0.0750000), wk =   0.0219780
        k(   86) = (  -0.0625000   0.0416667  -0.0625000), wk =   0.0219780
        k(   87) = (  -0.0500000   0.0333333  -0.0500000), wk =   0.0219780
        k(   88) = (  -0.0375000   0.0250000  -0.0375000), wk =   0.0219780
        k(   89) = (  -0.0250000   0.0166667  -0.0250000), wk =   0.0219780
        k(   90) = (  -0.0125000   0.0083333  -0.0125000), wk =   0.0219780
        k(   91) = (   0.0000000   0.0000000   0.0000000), wk =   0.0219780

     Dense  grid:    35749 G-vectors     FFT dimensions: (  48,  48,  48)

     Smooth grid:     9185 G-vectors     FFT dimensions: (  32,  32,  32)

     Dynamical RAM for                 wfc:       0.05 MB

     Dynamical RAM for     wfc (w. buffer):       0.05 MB

     Dynamical RAM for           str. fact:       0.14 MB

     Dynamical RAM for           local pot:       0.00 MB

     Dynamical RAM for          nlocal pot:       0.16 MB

     Dynamical RAM for                qrad:       1.61 MB

     Dynamical RAM for          rho,v,vnew:       1.04 MB

     Dynamical RAM for           G-vectors:       0.53 MB

     Dynamical RAM for          h,s,v(r/c):       0.01 MB

     Dynamical RAM for          <psi|beta>:       0.01 MB

     Dynamical RAM for                 psi:       0.10 MB

     Dynamical RAM for                hpsi:       0.10 MB

     Dynamical RAM for                spsi:       0.10 MB

     Dynamical RAM for      wfcinit/wfcrot:       0.11 MB

     Dynamical RAM for           addusdens:      25.63 MB

     Estimated static dynamical RAM per process >       4.85 MB

     Estimated max dynamical RAM per process >      30.48 MB

     Estimated total dynamical RAM >     121.93 MB

     The potential is recalculated from file :
     ../tmp/silicon.save/charge-density

     Starting wfcs are    8 randomized atomic wfcs +    4 random wfcs

     Band Structure Calculation
     Davidson diagonalization with overlap

     Computing kpt #:     1  of    91
     total cpu time spent up to now is        0.4 secs

     Computing kpt #:     2  of    91
     total cpu time spent up to now is        0.5 secs

     Computing kpt #:     3  of    91
     total cpu time spent up to now is        0.6 secs

     Computing kpt #:     4  of    91
     total cpu time spent up to now is        0.7 secs

     Computing kpt #:     5  of    91
     total cpu time spent up to now is        0.8 secs

     Computing kpt #:     6  of    91
     total cpu time spent up to now is        0.9 secs

     Computing kpt #:     7  of    91
     total cpu time spent up to now is        1.0 secs

     Computing kpt #:     8  of    91
     total cpu time spent up to now is        1.1 secs

     Computing kpt #:     9  of    91
     total cpu time spent up to now is        1.2 secs

     Computing kpt #:    10  of    91
     total cpu time spent up to now is        1.2 secs

     Computing kpt #:    11  of    91
     total cpu time spent up to now is        1.3 secs

     Computing kpt #:    12  of    91
     total cpu time spent up to now is        1.4 secs

     Computing kpt #:    13  of    91
     total cpu time spent up to now is        1.5 secs

     Computing kpt #:    14  of    91
     total cpu time spent up to now is        1.5 secs

     Computing kpt #:    15  of    91
     total cpu time spent up to now is        1.6 secs

     Computing kpt #:    16  of    91
     total cpu time spent up to now is        1.7 secs

     Computing kpt #:    17  of    91
     total cpu time spent up to now is        1.8 secs

     Computing kpt #:    18  of    91
     total cpu time spent up to now is        1.8 secs

     Computing kpt #:    19  of    91
     total cpu time spent up to now is        1.9 secs

     Computing kpt #:    20  of    91
     total cpu time spent up to now is        2.0 secs

     Computing kpt #:    21  of    91
     total cpu time spent up to now is        2.1 secs

     Computing kpt #:    22  of    91
     total cpu time spent up to now is        2.2 secs

     Computing kpt #:    23  of    91
     total cpu time spent up to now is        2.3 secs

     Computing kpt #:    24  of    91
     total cpu time spent up to now is        2.4 secs

     Computing kpt #:    25  of    91
     total cpu time spent up to now is        2.4 secs

     Computing kpt #:    26  of    91
     total cpu time spent up to now is        2.5 secs

     Computing kpt #:    27  of    91
     total cpu time spent up to now is        2.6 secs

     Computing kpt #:    28  of    91
     total cpu time spent up to now is        2.7 secs

     Computing kpt #:    29  of    91
     total cpu time spent up to now is        2.8 secs

     Computing kpt #:    30  of    91
     total cpu time spent up to now is        2.9 secs

     Computing kpt #:    31  of    91
     total cpu time spent up to now is        3.0 secs

     Computing kpt #:    32  of    91
     total cpu time spent up to now is        3.0 secs

     Computing kpt #:    33  of    91
     total cpu time spent up to now is        3.1 secs

     Computing kpt #:    34  of    91
     total cpu time spent up to now is        3.2 secs

     Computing kpt #:    35  of    91
     total cpu time spent up to now is        3.3 secs

     Computing kpt #:    36  of    91
     total cpu time spent up to now is        3.4 secs

     Computing kpt #:    37  of    91
     total cpu time spent up to now is        3.5 secs

     Computing kpt #:    38  of    91
     total cpu time spent up to now is        3.5 secs

     Computing kpt #:    39  of    91
     total cpu time spent up to now is        3.6 secs

     Computing kpt #:    40  of    91
     total cpu time spent up to now is        3.7 secs

     Computing kpt #:    41  of    91
     total cpu time spent up to now is        3.8 secs

     Computing kpt #:    42  of    91
     total cpu time spent up to now is        3.9 secs

     Computing kpt #:    43  of    91
     total cpu time spent up to now is        4.0 secs

     Computing kpt #:    44  of    91
     total cpu time spent up to now is        4.1 secs

     Computing kpt #:    45  of    91
     total cpu time spent up to now is        4.2 secs

     Computing kpt #:    46  of    91
     total cpu time spent up to now is        4.3 secs

     Computing kpt #:    47  of    91
     total cpu time spent up to now is        4.4 secs

     Computing kpt #:    48  of    91
     total cpu time spent up to now is        4.5 secs

     Computing kpt #:    49  of    91
     total cpu time spent up to now is        4.6 secs

     Computing kpt #:    50  of    91
     total cpu time spent up to now is        4.7 secs

     Computing kpt #:    51  of    91
     total cpu time spent up to now is        4.8 secs

     Computing kpt #:    52  of    91
     total cpu time spent up to now is        4.9 secs

     Computing kpt #:    53  of    91
     total cpu time spent up to now is        5.0 secs

     Computing kpt #:    54  of    91
     total cpu time spent up to now is        5.1 secs

     Computing kpt #:    55  of    91
     total cpu time spent up to now is        5.2 secs

     Computing kpt #:    56  of    91
     c_bands:  1 eigenvalues not converged
     total cpu time spent up to now is        5.4 secs

     Computing kpt #:    57  of    91
     total cpu time spent up to now is        5.5 secs

     Computing kpt #:    58  of    91
     total cpu time spent up to now is        5.6 secs

     Computing kpt #:    59  of    91
     total cpu time spent up to now is        5.7 secs

     Computing kpt #:    60  of    91
     total cpu time spent up to now is        5.9 secs

     Computing kpt #:    61  of    91
     total cpu time spent up to now is        6.0 secs

     Computing kpt #:    62  of    91
     total cpu time spent up to now is        6.1 secs

     Computing kpt #:    63  of    91
     total cpu time spent up to now is        6.2 secs

     Computing kpt #:    64  of    91
     total cpu time spent up to now is        6.3 secs

     Computing kpt #:    65  of    91
     total cpu time spent up to now is        6.4 secs

     Computing kpt #:    66  of    91
     total cpu time spent up to now is        6.5 secs

     Computing kpt #:    67  of    91
     total cpu time spent up to now is        6.6 secs

     Computing kpt #:    68  of    91
     total cpu time spent up to now is        6.6 secs

     Computing kpt #:    69  of    91
     total cpu time spent up to now is        6.7 secs

     Computing kpt #:    70  of    91
     total cpu time spent up to now is        6.8 secs

     Computing kpt #:    71  of    91
     total cpu time spent up to now is        6.9 secs

     Computing kpt #:    72  of    91
     total cpu time spent up to now is        7.0 secs

     Computing kpt #:    73  of    91
     total cpu time spent up to now is        7.1 secs

     Computing kpt #:    74  of    91
     total cpu time spent up to now is        7.2 secs

     Computing kpt #:    75  of    91
     total cpu time spent up to now is        7.3 secs

     Computing kpt #:    76  of    91
     total cpu time spent up to now is        7.4 secs

     Computing kpt #:    77  of    91
     total cpu time spent up to now is        7.5 secs

     Computing kpt #:    78  of    91
     total cpu time spent up to now is        7.6 secs

     Computing kpt #:    79  of    91
     total cpu time spent up to now is        7.7 secs

     Computing kpt #:    80  of    91
     total cpu time spent up to now is        7.7 secs

     Computing kpt #:    81  of    91
     total cpu time spent up to now is        7.8 secs

     Computing kpt #:    82  of    91
     total cpu time spent up to now is        7.9 secs

     Computing kpt #:    83  of    91
     total cpu time spent up to now is        8.0 secs

     Computing kpt #:    84  of    91
     total cpu time spent up to now is        8.1 secs

     Computing kpt #:    85  of    91
     total cpu time spent up to now is        8.2 secs

     Computing kpt #:    86  of    91
     total cpu time spent up to now is        8.3 secs

     Computing kpt #:    87  of    91
     total cpu time spent up to now is        8.4 secs

     Computing kpt #:    88  of    91
     total cpu time spent up to now is        8.5 secs

     Computing kpt #:    89  of    91
     total cpu time spent up to now is        8.6 secs

     Computing kpt #:    90  of    91
     total cpu time spent up to now is        8.7 secs

     Computing kpt #:    91  of    91
     total cpu time spent up to now is        8.8 secs

     ethr =  1.25E-11,  avg # of iterations = 50.9

     total cpu time spent up to now is        8.8 secs

     End of band structure calculation

          k = 0.5000 0.5000 0.5000 (  1158 PWs)   bands (ev):

    -3.3721  -0.7538   5.1289   5.1289   7.8800   9.6223   9.6223  13.9005
    16.9186  16.9186  17.7242  17.7461

          k = 0.4750 0.4750 0.4750 (  1149 PWs)   bands (ev):

    -3.4094  -0.7009   5.1334   5.1334   7.8852   9.6279   9.6279  13.9093
    16.6674  16.6674  17.5990  18.0161

          k = 0.4500 0.4500 0.4500 (  1143 PWs)   bands (ev):

    -3.5129  -0.5503   5.1469   5.1469   7.9007   9.6445   9.6445  13.9352
    16.2297  16.2297  17.2941  18.5097

          k = 0.4250 0.4250 0.4250 (  1143 PWs)   bands (ev):

    -3.6637  -0.3211   5.1694   5.1694   7.9264   9.6710   9.6710  13.9764
    15.7766  15.7766  16.9080  19.0548

          k = 0.4000 0.4000 0.4000 (  1149 PWs)   bands (ev):

    -3.8426  -0.0327   5.2009   5.2009   7.9623   9.7053   9.7053  14.0291
    15.3388  15.3388  16.4933  19.6181

          k = 0.3750 0.3750 0.3750 (  1143 PWs)   bands (ev):

    -4.0351   0.3000   5.2414   5.2414   8.0082   9.7445   9.7445  14.0852
    14.9268  14.9268  16.0785  20.1822

          k = 0.3500 0.3500 0.3500 (  1143 PWs)   bands (ev):

    -4.2312   0.6668   5.2907   5.2907   8.0638   9.7845   9.7845  14.1270
    14.5478  14.5478  15.6897  20.2627

          k = 0.3250 0.3250 0.3250 (  1149 PWs)   bands (ev):

    -4.4245   1.0607   5.3487   5.3487   8.1288   9.8198   9.8198  14.1148
    14.2084  14.2084  15.3693  19.8117

          k = 0.3000 0.3000 0.3000 (  1131 PWs)   bands (ev):

    -4.6107   1.4768   5.4151   5.4151   8.2027   9.8437   9.8437  13.9162
    13.9162  13.9833  15.1820  19.2660

          k = 0.2750 0.2750 0.2750 (  1128 PWs)   bands (ev):

    -4.7870   1.9113   5.4897   5.4897   8.2846   9.8487   9.8487  13.6789
    13.6789  13.7081  15.1483  18.6964

          k = 0.2500 0.2500 0.2500 (  1131 PWs)   bands (ev):

    -4.9514   2.3612   5.5717   5.5717   8.3736   9.8276   9.8276  13.3403
    13.5035  13.5035  15.2089  18.1429

          k = 0.2250 0.2250 0.2250 (  1128 PWs)   bands (ev):

    -5.1027   2.8238   5.6605   5.6605   8.4682   9.7757   9.7757  12.9286
    13.3946  13.3946  15.2994  17.6378

          k = 0.2000 0.2000 0.2000 (  1134 PWs)   bands (ev):

    -5.2397   3.2959   5.7548   5.7548   8.5664   9.6923   9.6923  12.4963
    13.3523  13.3523  15.3649  17.2220

          k = 0.1750 0.1750 0.1750 (  1143 PWs)   bands (ev):

    -5.3618   3.7741   5.8530   5.8530   8.6652   9.5817   9.5817  12.0548
    13.3713  13.3713  15.3436  16.9537

          k = 0.1500 0.1500 0.1500 (  1143 PWs)   bands (ev):

    -5.4684   4.2539   5.9529   5.9529   8.7607   9.4521   9.4521  11.6116
    13.4419  13.4419  15.1956  16.8715

          k = 0.1250 0.1250 0.1250 (  1137 PWs)   bands (ev):

    -5.5592   4.7289   6.0513   6.0513   8.8469   9.3142   9.3142  11.1757
    13.5509  13.5509  14.9584  16.9369

          k = 0.1000 0.1000 0.1000 (  1137 PWs)   bands (ev):

    -5.6338   5.1890   6.1443   6.1443   8.9150   9.1792   9.1792  10.7610
    13.6832  13.6832  14.7013  17.0774

          k = 0.0750 0.0750 0.0750 (  1140 PWs)   bands (ev):

    -5.6921   5.6179   6.2265   6.2265   8.9524   9.0583   9.0583  10.3910
    13.8211  13.8211  14.4709  17.2395

          k = 0.0500 0.0500 0.0500 (  1136 PWs)   bands (ev):

    -5.7338   5.9874   6.2920   6.2920   8.9465   8.9622   8.9622  10.1014
    13.9442  13.9442  14.2926  17.3867

          k = 0.0250 0.0250 0.0250 (  1139 PWs)   bands (ev):

    -5.7589   6.2510   6.3345   6.3345   8.9001   8.9001   8.9050   9.9260
    14.0309  14.0309  14.1806  17.4898

          k = 0.0000 0.0000 0.0000 (  1139 PWs)   bands (ev):

    -5.7673   6.3493   6.3493   6.3493   8.8786   8.8786   8.8786   9.8701
    14.0623  14.0623  14.1425  17.5270

          k = 0.0333 0.0000 0.0000 (  1139 PWs)   bands (ev):

    -5.7623   6.3166   6.3271   6.3271   8.8656   8.9068   8.9068   9.9022
    14.0194  14.0677  14.1651  17.5356

          k = 0.0667 0.0000 0.0000 (  1139 PWs)   bands (ev):

    -5.7474   6.2220   6.2635   6.2635   8.8274   8.9886   8.9886   9.9941
    13.8977  14.0841  14.2324  17.5615

          k = 0.1000 0.0000 0.0000 (  1135 PWs)   bands (ev):

    -5.7226   6.0746   6.1657   6.1657   8.7661   9.1165   9.1165  10.1346
    13.7151  14.1114  14.3420  17.6046

          k = 0.1333 0.0000 0.0000 (  1139 PWs)   bands (ev):

    -5.6880   5.8856   6.0426   6.0426   8.6848   9.2819   9.2819  10.3078
    13.4945  14.1496  14.4909  17.6648

          k = 0.1667 0.0000 0.0000 (  1147 PWs)   bands (ev):

    -5.6435   5.6653   5.9022   5.9022   8.5870   9.4764   9.4764  10.4949
    13.2609  14.1987  14.6752  17.7421

          k = 0.2000 0.0000 0.0000 (  1147 PWs)   bands (ev):

    -5.5891   5.4220   5.7510   5.7510   8.4765   9.6934   9.6934  10.6721
    13.0426  14.2587  14.8912  17.8364

          k = 0.2333 0.0000 0.0000 (  1151 PWs)   bands (ev):

    -5.5249   5.1620   5.5938   5.5938   8.3568   9.9280   9.9280  10.8064
    12.8759  14.3296  15.1349  17.9475

          k = 0.2667 0.0000 0.0000 (  1151 PWs)   bands (ev):

    -5.4510   4.8898   5.4344   5.4344   8.2311  10.1764  10.1764  10.8578
    12.8032  14.4113  15.4028  18.0750

          k = 0.3000 0.0000 0.0000 (  1154 PWs)   bands (ev):

    -5.3673   4.6088   5.2753   5.2753   8.1022  10.4358  10.4358  10.8005
    12.8521  14.5040  15.6917  18.2185

          k = 0.3333 0.0000 0.0000 (  1138 PWs)   bands (ev):

    -5.2740   4.3211   5.1183   5.1183   7.9725  10.6459  10.7042  10.7042
    13.0122  14.6075  15.9987  18.3772

          k = 0.3667 0.0000 0.0000 (  1134 PWs)   bands (ev):

    -5.1710   4.0286   4.9650   4.9650   7.8440  10.4282  10.9800  10.9800
    13.2505  14.7219  16.3210  18.5502

          k = 0.4000 0.0000 0.0000 (  1134 PWs)   bands (ev):

    -5.0585   3.7324   4.8164   4.8164   7.7185  10.1771  11.2619  11.2619
    13.5376  14.8471  16.6560  18.7359

          k = 0.4333 0.0000 0.0000 (  1134 PWs)   bands (ev):

    -4.9366   3.4334   4.6734   4.6734   7.5972   9.9116  11.5491  11.5491
    13.8548  14.9832  17.0012  18.9320

          k = 0.4667 0.0000 0.0000 (  1118 PWs)   bands (ev):

    -4.8052   3.1325   4.5365   4.5365   7.4815   9.6428  11.8407  11.8407
    14.1911  15.1301  17.3538  19.1348

          k = 0.5000 0.0000 0.0000 (  1118 PWs)   bands (ev):

    -4.6646   2.8302   4.4064   4.4064   7.3723   9.3773  12.1362  12.1362
    14.5395  15.2877  17.7109  19.3387

          k = 0.5333 0.0000 0.0000 (  1118 PWs)   bands (ev):

    -4.5148   2.5271   4.2834   4.2834   7.2704   9.1193  12.4351  12.4351
    14.8956  15.4562  18.0689  19.5349

          k = 0.5667 0.0000 0.0000 (  1130 PWs)   bands (ev):

    -4.3560   2.2236   4.1678   4.1678   7.1766   8.8715  12.7371  12.7371
    15.2561  15.6354  18.4238  19.7094

          k = 0.6000 0.0000 0.0000 (  1126 PWs)   bands (ev):

    -4.1882   1.9203   4.0600   4.0600   7.0916   8.6355  13.0419  13.0419
    15.6185  15.8253  18.7702  19.8415

          k = 0.6333 0.0000 0.0000 (  1118 PWs)   bands (ev):

    -4.0116   1.6176   3.9602   3.9602   7.0158   8.4126  13.3493  13.3493
    15.9808  16.0259  19.1017  19.9050

          k = 0.6667 0.0000 0.0000 (  1118 PWs)   bands (ev):

    -3.8263   1.3158   3.8685   3.8685   6.9498   8.2035  13.6592  13.6592
    16.2373  16.3413  19.4098  19.8776

          k = 0.7000 0.0000 0.0000 (  1126 PWs)   bands (ev):

    -3.6326   1.0156   3.7852   3.7852   6.8940   8.0087  13.9713  13.9713
    16.4592  16.6985  19.6844  19.7551

          k = 0.7333 0.0000 0.0000 (  1126 PWs)   bands (ev):

    -3.4305   0.7174   3.7103   3.7103   6.8488   7.8285  14.2857  14.2857
    16.6918  17.0510  19.5535  19.5535

          k = 0.7667 0.0000 0.0000 (  1134 PWs)   bands (ev):

    -3.2203   0.4216   3.6440   3.6440   6.8147   7.6630  14.6020  14.6020
    16.9350  17.3975  19.2966  19.2966

          k = 0.8000 0.0000 0.0000 (  1126 PWs)   bands (ev):

    -3.0022   0.1288   3.5864   3.5864   6.7918   7.5123  14.9199  14.9199
    17.1887  17.7367  19.0054  19.0054

          k = 0.8333 0.0000 0.0000 (  1138 PWs)   bands (ev):

    -2.7765  -0.1607   3.5375   3.5375   6.7807   7.3763  15.2387  15.2387
    17.4529  18.0672  18.6945  18.6945

          k = 0.8667 0.0000 0.0000 (  1138 PWs)   bands (ev):

    -2.5433  -0.4463   3.4974   3.4974   6.7815   7.2548  15.5569  15.5569
    17.7275  18.3746  18.3746  18.3876

          k = 0.9000 0.0000 0.0000 (  1138 PWs)   bands (ev):

    -2.3029  -0.7277   3.4662   3.4662   6.7947   7.1478  15.8713  15.8713
    18.0125  18.0545  18.0545  18.6960

          k = 0.9333 0.0000 0.0000 (  1130 PWs)   bands (ev):

    -2.0557  -1.0043   3.4439   3.4439   6.8204   7.0549  16.1737  16.1737
    17.7461  17.7461  18.3079  18.9901

          k = 0.9667 0.0000 0.0000 (  1138 PWs)   bands (ev):

    -1.8018  -1.2758   3.4305   3.4305   6.8590   6.9760  16.4364  16.4364
    17.4790  17.4790  18.6136  19.2554

          k = 1.0000 0.0000 0.0000 (  1138 PWs)   bands (ev):

    -1.5418  -1.5418   3.4260   3.4260   6.9108   6.9108  16.5620  16.5620
    17.3518  17.3518  18.9294  18.9294

          k = 1.0000 0.0250 0.0250 (  1136 PWs)   bands (ev):

    -1.5438  -1.5358   3.3859   3.4305   6.9160   6.9690  16.4972  16.5287
    17.2690  17.2820  18.9978  18.9982

          k = 1.0000 0.0500 0.0500 (  1136 PWs)   bands (ev):

    -1.5502  -1.5178   3.2737   3.4440   6.9317   7.1354  16.3218  16.4332
    17.0532  17.1009  19.1748  19.1852

          k = 1.0000 0.0750 0.0750 (  1134 PWs)   bands (ev):

    -1.5617  -1.4879   3.1094   3.4664   6.9577   7.3912  16.0735  16.2862
    16.7613  16.8564  19.4126  19.4526

          k = 1.0000 0.1000 0.1000 (  1134 PWs)   bands (ev):

    -1.5798  -1.4461   2.9147   3.4977   6.9941   7.7156  15.7836  16.1003
    16.4325  16.5803  19.6791  19.7685

          k = 1.0000 0.1250 0.1250 (  1132 PWs)   bands (ev):

    -1.6063  -1.3923   2.7084   3.5377   7.0407   8.0915  15.4715  15.8871
    16.0879  16.2896  19.9573  20.1125

          k = 1.0000 0.1500 0.1500 (  1136 PWs)   bands (ev):

    -1.6435  -1.3266   2.5050   3.5864   7.0975   8.5065  15.1489  15.6554
    15.7385  15.9935  20.2385  20.3702

          k = 1.0000 0.1750 0.1750 (  1136 PWs)   bands (ev):

    -1.6940  -1.2490   2.3154   3.6436   7.1641   8.9518  14.8224  15.3905
    15.4120  15.6972  20.5175  20.5894

          k = 1.0000 0.2000 0.2000 (  1144 PWs)   bands (ev):

    -1.7604  -1.1596   2.1477   3.7090   7.2405   9.4211  14.4965  15.0478
    15.1619  15.4043  20.7917  20.8065

          k = 1.0000 0.2250 0.2250 (  1136 PWs)   bands (ev):

    -1.8447  -1.0583   2.0081   3.7824   7.3264   9.9093  14.1737  14.7131
    14.9089  15.1172  21.0087  21.0597

          k = 1.0000 0.2500 0.2500 (  1136 PWs)   bands (ev):

    -1.9482  -0.9453   1.9005   3.8636   7.4214  10.4121  13.8560  14.3890
    14.6559  14.8377  21.1644  21.3208

          k = 0.9667 0.2417 0.2417 (  1136 PWs)   bands (ev):

    -1.9529  -0.9465   1.9474   3.8398   7.3947  10.2489  13.8765  14.2733
    14.9610  15.0236  21.0263  21.0664

          k = 0.9333 0.2333 0.2333 (  1138 PWs)   bands (ev):

    -2.0423  -0.8680   2.0241   3.8251   7.3811  10.0989  13.7831  14.0595
    15.3423  15.3620  20.5717  20.8650

          k = 0.9000 0.2250 0.2250 (  1136 PWs)   bands (ev):

    -2.1930  -0.7285   2.1260   3.8197   7.3802   9.9629  13.6448  13.8378
    15.7236  15.7658  20.0953  20.5777

          k = 0.8667 0.2167 0.2167 (  1133 PWs)   bands (ev):

    -2.3784  -0.5511   2.2490   3.8236   7.3917   9.8420  13.4915  13.6148
    16.1361  16.1611  19.6203  20.2179

          k = 0.8333 0.2083 0.2083 (  1135 PWs)   bands (ev):

    -2.5814  -0.3499   2.3898   3.8371   7.4150   9.7372  13.3339  13.3923
    16.5385  16.5668  19.1539  19.8097

          k = 0.8000 0.2000 0.2000 (  1133 PWs)   bands (ev):

    -2.7924  -0.1320   2.5454   3.8601   7.4493   9.6498  13.1708  13.1760
    16.8855  17.0075  18.7010  19.3758

          k = 0.7667 0.1917 0.1917 (  1128 PWs)   bands (ev):

    -3.0059   0.0986   2.7135   3.8926   7.4934   9.5815  12.9506  13.0193
    17.1835  17.4440  18.2739  18.9294

          k = 0.7333 0.1833 0.1833 (  1127 PWs)   bands (ev):

    -3.2182   0.3398   2.8918   3.9347   7.5458   9.5339  12.7319  12.8639
    17.4083  17.6907  18.0555  18.4787

          k = 0.7000 0.1750 0.1750 (  1125 PWs)   bands (ev):

    -3.4270   0.5904   3.0785   3.9864   7.6046   9.5091  12.5149  12.7090
    17.3630  17.5314  18.0365  18.4269

          k = 0.6667 0.1667 0.1667 (  1129 PWs)   bands (ev):

    -3.6307   0.8497   3.2719   4.0475   7.6678   9.5093  12.2997  12.5536
    16.9784  17.4489  17.7064  18.8628

          k = 0.6333 0.1583 0.1583 (  1133 PWs)   bands (ev):

    -3.8280   1.1169   3.4703   4.1181   7.7331   9.5365  12.0866  12.3960
    16.6064  17.0529  17.6148  19.2793

          k = 0.6000 0.1500 0.1500 (  1131 PWs)   bands (ev):

    -4.0181   1.3918   3.6722   4.1980   7.7985   9.5921  11.8762  12.2346
    16.2549  16.6057  17.5251  19.6399

          k = 0.5667 0.1417 0.1417 (  1129 PWs)   bands (ev):

    -4.2002   1.6739   3.8763   4.2871   7.8627   9.6765  11.6692  12.0673
    15.9272  16.1550  17.4111  19.6148

          k = 0.5333 0.1333 0.1333 (  1135 PWs)   bands (ev):

    -4.3737   1.9630   4.0811   4.3852   7.9250   9.7884  11.4669  11.8922
    15.6260  15.7071  17.2795  19.2762

          k = 0.5000 0.1250 0.1250 (  1133 PWs)   bands (ev):

    -4.5382   2.2587   4.2855   4.4920   7.9857   9.9239  11.2718  11.7076
    15.2651  15.3535  17.1337  18.9283

          k = 0.4667 0.1167 0.1167 (  1130 PWs)   bands (ev):

    -4.6933   2.5606   4.4882   4.6073   8.0456  10.0744  11.0898  11.5123
    14.8317  15.1109  16.9721  18.5952

          k = 0.4333 0.1083 0.1083 (  1129 PWs)   bands (ev):

    -4.8387   2.8682   4.6880   4.7306   8.1061  10.2196  10.9368  11.3059
    14.4104  14.8988  16.7889  18.2945

          k = 0.4000 0.1000 0.1000 (  1136 PWs)   bands (ev):

    -4.9741   3.1810   4.8616   4.8837   8.1682  10.3057  10.8598  11.0889
    14.0068  14.7171  16.5778  18.0403

          k = 0.3667 0.0917 0.0917 (  1140 PWs)   bands (ev):

    -5.0994   3.4981   4.9995   5.0742   8.2332  10.2659  10.8627  10.9148
    13.6301  14.5643  16.3364  17.8400

          k = 0.3333 0.0833 0.0833 (  1138 PWs)   bands (ev):

    -5.2142   3.8187   5.1435   5.2581   8.3014  10.1395  10.6295  11.0440
    13.2979  14.4385  16.0696  17.6927

          k = 0.3000 0.0750 0.0750 (  1144 PWs)   bands (ev):

    -5.3185   4.1415   5.2926   5.4342   8.3730   9.9852  10.3923  11.1554
    13.0419  14.3371  15.7881  17.5910

          k = 0.2667 0.0667 0.0667 (  1145 PWs)   bands (ev):

    -5.4122   4.4647   5.4453   5.6009   8.4475   9.8249  10.1546  11.1798
    12.9089  14.2572  15.5039  17.5256

          k = 0.2333 0.0583 0.0583 (  1143 PWs)   bands (ev):

    -5.4950   4.7858   5.5998   5.7567   8.5237   9.6661   9.9202  11.0811
    12.9262  14.1957  15.2278  17.4882

          k = 0.2000 0.0500 0.0500 (  1143 PWs)   bands (ev):

    -5.5670   5.1014   5.7533   5.8995   8.5996   9.5121   9.6938  10.8849
    13.0642  14.1499  14.9687  17.4722

          k = 0.1667 0.0417 0.0417 (  1141 PWs)   bands (ev):

    -5.6281   5.4063   5.9022   6.0272   8.6727   9.3647   9.4805  10.6440
    13.2683  14.1167  14.7344  17.4716

          k = 0.1333 0.0333 0.0333 (  1141 PWs)   bands (ev):

    -5.6781   5.6927   6.0416   6.1374   8.7397   9.2253   9.2868  10.4002
    13.4949  14.0936  14.5314  17.4814

          k = 0.1000 0.0250 0.0250 (  1137 PWs)   bands (ev):

    -5.7171   5.9492   6.1645   6.2273   8.7971   9.0968   9.1205  10.1828
    13.7128  14.0783  14.3660  17.4964

          k = 0.0667 0.0167 0.0167 (  1139 PWs)   bands (ev):

    -5.7450   6.1587   6.2627   6.2941   8.8412   8.9862   8.9907  10.0133
    13.8956  14.0689  14.2434  17.5116

          k = 0.0333 0.0083 0.0083 (  1139 PWs)   bands (ev):

    -5.7617   6.2993   6.3269   6.3353   8.8691   8.9074   8.9076   9.9064
    14.0186  14.0638  14.1680  17.5229

          k = 0.0000 0.0000 0.0000 (  1139 PWs)   bands (ev):

    -5.7673   6.3493   6.3493   6.3493   8.8786   8.8786   8.8786   9.8701
    14.0623  14.0623  14.1425  17.5270

     Writing output data file ../tmp/silicon.save/
 
     init_run     :      0.17s CPU      0.17s WALL (       1 calls)
     electrons    :      7.70s CPU      8.47s WALL (       1 calls)

     Called by init_run:
     wfcinit      :      0.00s CPU      0.00s WALL (       1 calls)
     wfcinit:atom :      0.00s CPU      0.00s WALL (      91 calls)
     wfcinit:wfcr :      0.15s CPU      0.18s WALL (      91 calls)
     potinit      :      0.01s CPU      0.01s WALL (       1 calls)
     hinit0       :      0.07s CPU      0.07s WALL (       1 calls)

     Called by electrons:
     c_bands      :      7.70s CPU      8.47s WALL (       1 calls)
     v_of_rho     :      0.01s CPU      0.01s WALL (       1 calls)
     v_h          :      0.00s CPU      0.00s WALL (       1 calls)
     v_xc         :      0.01s CPU      0.01s WALL (       1 calls)
     newd         :      0.03s CPU      0.03s WALL (       1 calls)

     Called by c_bands:
     init_us_2    :      0.01s CPU      0.01s WALL (      91 calls)
     cegterg      :      7.49s CPU      8.21s WALL (     275 calls)

     Called by sum_band:

     Called by *egterg:
     cdiaghg      :      2.74s CPU      3.03s WALL (    4727 calls)
     cegterg:over :      0.65s CPU      0.71s WALL (    4636 calls)
     cegterg:upda :      0.15s CPU      0.16s WALL (    4636 calls)
     cegterg:last :      0.20s CPU      0.22s WALL (    2746 calls)
     cdiaghg:chol :      0.19s CPU      0.21s WALL (    4727 calls)
     cdiaghg:inve :      0.06s CPU      0.07s WALL (    4727 calls)
     cdiaghg:para :      0.28s CPU      0.30s WALL (    9454 calls)
     h_psi        :      3.67s CPU      4.03s WALL (    5002 calls)
     s_psi        :      0.06s CPU      0.07s WALL (    5002 calls)
     g_psi        :      0.03s CPU      0.03s WALL (    4636 calls)

     Called by h_psi:
     h_psi:calbec :      0.16s CPU      0.17s WALL (    5002 calls)
     vloc_psi     :      3.40s CPU      3.74s WALL (    5002 calls)
     add_vuspsi   :      0.07s CPU      0.08s WALL (    5002 calls)

     General routines
     calbec       :      0.15s CPU      0.16s WALL (    5002 calls)
     fft          :      0.00s CPU      0.00s WALL (      13 calls)
     ffts         :      0.00s CPU      0.00s WALL (       1 calls)
     fftw         :      3.04s CPU      3.34s WALL (   67748 calls)
     interpolate  :      0.00s CPU      0.00s WALL (       1 calls)
     davcio       :      0.00s CPU      0.01s WALL (     182 calls)
 
     Parallel routines
     fft_scatt_xy :      0.52s CPU      0.57s WALL (   67762 calls)
     fft_scatt_yz :      1.61s CPU      1.76s WALL (   67762 calls)
 
     PWSCF        :      8.06s CPU      9.55s WALL

 
   This run was terminated on:   2:15:30   3Apr2022            

=------------------------------------------------------------------------------=
   JOB DONE.
=------------------------------------------------------------------------------=
