### Running on host: s001-n013

     Program BANDS v.6.7MaX starts on  3Apr2022 at  2:15:31 

     This program is part of the open-source Quantum ESPRESSO suite
     for quantum simulation of materials; please cite
         "P. Giannozzi et al., J. Phys.:Condens. Matter 21 395502 (2009);
         "P. Giannozzi et al., J. Phys.:Condens. Matter 29 465901 (2017);
          URL http://www.quantum-espresso.org", 
     in publications or presentations arising from this work. More details at
     http://www.quantum-espresso.org/quote

     Parallel version (MPI & OpenMP), running on       4 processor cores
     Number of MPI processes:                 4
     Threads/MPI process:                     1

     MPI processes distributed on     1 nodes
     R & G space division:  proc/nbgrp/npool/nimage =       4

     Reading xml data from directory:

     ../tmp/silicon.save/

     IMPORTANT: XC functional enforced from input :
     Exchange-correlation= PBESOL
                           (   1   4  10   8   0   0   0)
     Any further DFT definition will be discarded
     Please, verify this is what you really want

 
     Parallelization info
     --------------------
     sticks:   dense  smooth     PW     G-vecs:    dense   smooth      PW
     Min         354     145     42                 8936     2296     367
     Max         355     146     43                 8940     2297     368
     Sum        1417     583    169                35749     9185    1471
 
     Reading collected, re-writing distributed wavefunctions
     high-symmetry point:  0.5000 0.5000 0.5000   x coordinate   0.0000
     high-symmetry point:  0.0000 0.0000 0.0000   x coordinate   0.8660
     high-symmetry point:  1.0000 0.0000 0.0000   x coordinate   1.8660
     high-symmetry point:  1.0000 0.2500 0.2500   x coordinate   2.2196
     high-symmetry point:  0.0000 0.0000 0.0000   x coordinate   3.2802

     Plottable bands (eV) written to file bands.dat.gnu
     Bands written to file bands.dat

 **************************************************************************

                    xk=(   0.50000,   0.50000,   0.50000  )

     zone border point and non-symmorphic group 
     symmetry decomposition not available

 **************************************************************************

 **************************************************************************

                    xk=(   0.47500,   0.47500,   0.47500  )

     point group C_3v (3m)  
     there are  3 classes
     the character table:

       E     2C3   3s_v 
A_1    1.00  1.00  1.00
A_2    1.00  1.00 -1.00
E      2.00 -1.00  0.00

     the symmetry operations in each class and the name of the first element:

     E        1
                                                                 
     2C3      2    3
                                                                 
     3s_v     4    5    6
                                                                 

     Band symmetry, C_3v (3m)   point group:

     e(  1 -  1) =     -3.40940  eV     1   --> A_1  L_1       
     e(  2 -  2) =     -0.70087  eV     1   --> A_1  L_1       
     e(  3 -  4) =      5.13337  eV     2   --> E    L_3       
     e(  5 -  5) =      7.88519  eV     1   --> A_1  L_1       
     e(  6 -  7) =      9.62793  eV     2   --> E    L_3       
     e(  8 -  8) =     13.90933  eV     1   --> A_1  L_1       
     e(  9 - 10) =     16.66736  eV     2   --> E    L_3       
     e( 11 - 11) =     17.59900  eV     1   --> A_1  L_1       
     e( 12 - 12) =     18.01610  eV     1   -->   ?

 **************************************************************************

 **************************************************************************

                    xk=(   0.45000,   0.45000,   0.45000  )

     Band symmetry, C_3v (3m)   point group:

     e(  1 -  1) =     -3.51286  eV     1   --> A_1  L_1       
     e(  2 -  2) =     -0.55030  eV     1   --> A_1  L_1       
     e(  3 -  4) =      5.14690  eV     2   --> E    L_3       
     e(  5 -  5) =      7.90067  eV     1   --> A_1  L_1       
     e(  6 -  7) =      9.64455  eV     2   --> E    L_3       
     e(  8 -  8) =     13.93523  eV     1   --> A_1  L_1       
     e(  9 - 10) =     16.22967  eV     2   --> E    L_3       
     e( 11 - 11) =     17.29412  eV     1   --> A_1  L_1       
     e( 12 - 12) =     18.50972  eV     1   -->   ?

 **************************************************************************

 **************************************************************************

                    xk=(   0.42500,   0.42500,   0.42500  )

     Band symmetry, C_3v (3m)   point group:

     e(  1 -  1) =     -3.66366  eV     1   --> A_1  L_1       
     e(  2 -  2) =     -0.32112  eV     1   --> A_1  L_1       
     e(  3 -  4) =      5.16942  eV     2   --> E    L_3       
     e(  5 -  5) =      7.92642  eV     1   --> A_1  L_1       
     e(  6 -  7) =      9.67099  eV     2   --> E    L_3       
     e(  8 -  8) =     13.97642  eV     1   --> A_1  L_1       
     e(  9 - 10) =     15.77660  eV     2   --> E    L_3       
     e( 11 - 11) =     16.90796  eV     1   --> A_1  L_1       
     e( 12 - 12) =     19.05483  eV     1   -->   ?

 **************************************************************************

 **************************************************************************

                    xk=(   0.40000,   0.40000,   0.40000  )

     Band symmetry, C_3v (3m)   point group:

     e(  1 -  1) =     -3.84262  eV     1   --> A_1  L_1       
     e(  2 -  2) =     -0.03271  eV     1   --> A_1  L_1       
     e(  3 -  4) =      5.20093  eV     2   --> E    L_3       
     e(  5 -  5) =      7.96231  eV     1   --> A_1  L_1       
     e(  6 -  7) =      9.70530  eV     2   --> E    L_3       
     e(  8 -  8) =     14.02907  eV     1   --> A_1  L_1       
     e(  9 - 10) =     15.33878  eV     2   --> E    L_3       
     e( 11 - 11) =     16.49329  eV     1   --> A_1  L_1       
     e( 12 - 12) =     19.61811  eV     1   -->   ?

 **************************************************************************

 **************************************************************************

                    xk=(   0.37500,   0.37500,   0.37500  )

     Band symmetry, C_3v (3m)   point group:

     e(  1 -  1) =     -4.03511  eV     1   --> A_1  L_1       
     e(  2 -  2) =      0.30004  eV     1   --> A_1  L_1       
     e(  3 -  4) =      5.24138  eV     2   --> E    L_3       
     e(  5 -  5) =      8.00820  eV     1   --> A_1  L_1       
     e(  6 -  7) =      9.74450  eV     2   --> E    L_3       
     e(  8 -  8) =     14.08517  eV     1   --> A_1  L_1       
     e(  9 - 10) =     14.92680  eV     2   --> E    L_3       
     e( 11 - 11) =     16.07850  eV     1   --> A_1  L_1       
     e( 12 - 12) =     20.18215  eV     1   -->   ?

 **************************************************************************

 **************************************************************************

                    xk=(   0.35000,   0.35000,   0.35000  )

     Band symmetry, C_3v (3m)   point group:

     e(  1 -  1) =     -4.23123  eV     1   --> A_1  L_1       
     e(  2 -  2) =      0.66684  eV     1   --> A_1  L_1       
     e(  3 -  4) =      5.29068  eV     2   --> E    L_3       
     e(  5 -  5) =      8.06383  eV     1   --> A_1  L_1       
     e(  6 -  7) =      9.78446  eV     2   --> E    L_3       
     e(  8 -  8) =     14.12698  eV     1   --> A_1  L_1       
     e(  9 - 10) =     14.54775  eV     2   --> E    L_3       
     e( 11 - 11) =     15.68968  eV     1   --> A_1  L_1       
     e( 12 - 12) =     20.26269  eV     1   --> A_1  L_1       

 **************************************************************************

 **************************************************************************

                    xk=(   0.32500,   0.32500,   0.32500  )

     Band symmetry, C_3v (3m)   point group:

     e(  1 -  1) =     -4.42452  eV     1   --> A_1  L_1       
     e(  2 -  2) =      1.06071  eV     1   --> A_1  L_1       
     e(  3 -  4) =      5.34868  eV     2   --> E    L_3       
     e(  5 -  5) =      8.12882  eV     1   --> A_1  L_1       
     e(  6 -  7) =      9.81976  eV     2   --> E    L_3       
     e(  8 -  8) =     14.11476  eV     1   --> A_1  L_1       
     e(  9 - 10) =     14.20843  eV     2   --> E    L_3       
     e( 11 - 11) =     15.36934  eV     1   --> A_1  L_1       
     e( 12 - 12) =     19.81167  eV     1   --> A_1  L_1       

 **************************************************************************

 **************************************************************************

                    xk=(   0.30000,   0.30000,   0.30000  )

     Band symmetry, C_3v (3m)   point group:

     e(  1 -  1) =     -4.61072  eV     1   --> A_1  L_1       
     e(  2 -  2) =      1.47677  eV     1   --> A_1  L_1       
     e(  3 -  4) =      5.41515  eV     2   --> E    L_3       
     e(  5 -  5) =      8.20266  eV     1   --> A_1  L_1       
     e(  6 -  7) =      9.84367  eV     2   --> E    L_3       
     e(  8 -  9) =     13.91622  eV     2   --> E    L_3       
     e( 10 - 10) =     13.98326  eV     1   --> A_1  L_1       
     e( 11 - 11) =     15.18201  eV     1   --> A_1  L_1       
     e( 12 - 12) =     19.26600  eV     1   --> A_1  L_1       

 **************************************************************************

 **************************************************************************

                    xk=(   0.27500,   0.27500,   0.27500  )

     Band symmetry, C_3v (3m)   point group:

     e(  1 -  1) =     -4.78702  eV     1   --> A_1  L_1       
     e(  2 -  2) =      1.91129  eV     1   --> A_1  L_1       
     e(  3 -  4) =      5.48969  eV     2   --> E    L_3       
     e(  5 -  5) =      8.28460  eV     1   --> A_1  L_1       
     e(  6 -  7) =      9.84867  eV     2   --> E    L_3       
     e(  8 -  9) =     13.67888  eV     2   --> E    L_3       
     e( 10 - 10) =     13.70808  eV     1   --> A_1  L_1       
     e( 11 - 11) =     15.14827  eV     1   --> A_1  L_1       
     e( 12 - 12) =     18.69643  eV     1   --> A_1  L_1       

 **************************************************************************

 **************************************************************************

                    xk=(   0.25000,   0.25000,   0.25000  )

     Band symmetry, C_3v (3m)   point group:

     e(  1 -  1) =     -4.95145  eV     1   --> A_1  L_1       
     e(  2 -  2) =      2.36123  eV     1   --> A_1  L_1       
     e(  3 -  4) =      5.57174  eV     2   --> E    L_3       
     e(  5 -  5) =      8.37360  eV     1   --> A_1  L_1       
     e(  6 -  7) =      9.82764  eV     2   --> E    L_3       
     e(  8 -  8) =     13.34032  eV     1   --> A_1  L_1       
     e(  9 - 10) =     13.50349  eV     2   --> E    L_3       
     e( 11 - 11) =     15.20891  eV     1   --> A_1  L_1       
     e( 12 - 12) =     18.14294  eV     1   --> A_1  L_1       

 **************************************************************************

 **************************************************************************

                    xk=(   0.22500,   0.22500,   0.22500  )

     Band symmetry, C_3v (3m)   point group:

     e(  1 -  1) =     -5.10266  eV     1   --> A_1  L_1       
     e(  2 -  2) =      2.82376  eV     1   --> A_1  L_1       
     e(  3 -  4) =      5.66050  eV     2   --> E    L_3       
     e(  5 -  5) =      8.46821  eV     1   --> A_1  L_1       
     e(  6 -  7) =      9.77574  eV     2   --> E    L_3       
     e(  8 -  8) =     12.92859  eV     1   --> A_1  L_1       
     e(  9 - 10) =     13.39461  eV     2   --> E    L_3       
     e( 11 - 11) =     15.29936  eV     1   --> A_1  L_1       
     e( 12 - 12) =     17.63779  eV     1   --> A_1  L_1       

 **************************************************************************

 **************************************************************************

                    xk=(   0.20000,   0.20000,   0.20000  )

     Band symmetry, C_3v (3m)   point group:

     e(  1 -  1) =     -5.23968  eV     1   --> A_1  L_1       
     e(  2 -  2) =      3.29588  eV     1   --> A_1  L_1       
     e(  3 -  4) =      5.75481  eV     2   --> E    L_3       
     e(  5 -  5) =      8.56637  eV     1   --> A_1  L_1       
     e(  6 -  7) =      9.69233  eV     2   --> E    L_3       
     e(  8 -  8) =     12.49634  eV     1   --> A_1  L_1       
     e(  9 - 10) =     13.35229  eV     2   --> E    L_3       
     e( 11 - 11) =     15.36491  eV     1   --> A_1  L_1       
     e( 12 - 12) =     17.22203  eV     1   --> A_1  L_1       

 **************************************************************************

 **************************************************************************

                    xk=(   0.17500,   0.17500,   0.17500  )

     Band symmetry, C_3v (3m)   point group:

     e(  1 -  1) =     -5.36177  eV     1   --> A_1  L_1       
     e(  2 -  2) =      3.77412  eV     1   --> A_1  L_1       
     e(  3 -  4) =      5.85302  eV     2   --> E    L_3       
     e(  5 -  5) =      8.66524  eV     1   --> A_1  L_1       
     e(  6 -  7) =      9.58169  eV     2   --> E    L_3       
     e(  8 -  8) =     12.05478  eV     1   --> A_1  L_1       
     e(  9 - 10) =     13.37132  eV     2   --> E    L_3       
     e( 11 - 11) =     15.34359  eV     1   --> A_1  L_1       
     e( 12 - 12) =     16.95369  eV     1   --> A_1  L_1       

 **************************************************************************

 **************************************************************************

                    xk=(   0.15000,   0.15000,   0.15000  )

     Band symmetry, C_3v (3m)   point group:

     e(  1 -  1) =     -5.46841  eV     1   --> A_1  L_1       
     e(  2 -  2) =      4.25393  eV     1   --> A_1  L_1       
     e(  3 -  4) =      5.95289  eV     2   --> E    L_3       
     e(  5 -  5) =      8.76072  eV     1   --> A_1  L_1       
     e(  6 -  7) =      9.45212  eV     2   --> E    L_3       
     e(  8 -  8) =     11.61162  eV     1   --> A_1  L_1       
     e(  9 - 10) =     13.44187  eV     2   --> E    L_3       
     e( 11 - 11) =     15.19560  eV     1   --> A_1  L_1       
     e( 12 - 12) =     16.87153  eV     1   --> A_1  L_1       

 **************************************************************************

 **************************************************************************

                    xk=(   0.12500,   0.12500,   0.12500  )

     Band symmetry, C_3v (3m)   point group:

     e(  1 -  1) =     -5.55919  eV     1   --> A_1  L_1       
     e(  2 -  2) =      4.72886  eV     1   --> A_1  L_1       
     e(  3 -  4) =      6.05134  eV     2   --> E    L_3       
     e(  5 -  5) =      8.84687  eV     1   --> A_1  L_1       
     e(  6 -  7) =      9.31417  eV     2   --> E    L_3       
     e(  8 -  8) =     11.17571  eV     1   --> A_1  L_1       
     e(  9 - 10) =     13.55094  eV     2   --> E    L_3       
     e( 11 - 11) =     14.95843  eV     1   --> A_1  L_1       
     e( 12 - 12) =     16.93690  eV     1   --> A_1  L_1       

 **************************************************************************

 **************************************************************************

                    xk=(   0.10000,   0.10000,   0.10000  )

     Band symmetry, C_3v (3m)   point group:

     e(  1 -  1) =     -5.63382  eV     1   --> A_1  L_1       
     e(  2 -  2) =      5.18898  eV     1   --> A_1  L_1       
     e(  3 -  4) =      6.14427  eV     2   --> E    L_3       
     e(  5 -  5) =      8.91495  eV     1   --> A_1  L_1       
     e(  6 -  7) =      9.17915  eV     2   --> E    L_3       
     e(  8 -  8) =     10.76097  eV     1   --> A_1  L_1       
     e(  9 - 10) =     13.68321  eV     2   --> E    L_3       
     e( 11 - 11) =     14.70128  eV     1   --> A_1  L_1       
     e( 12 - 12) =     17.07736  eV     1   --> A_1  L_1       

 **************************************************************************

 **************************************************************************

                    xk=(   0.07500,   0.07500,   0.07500  )

     Band symmetry, C_3v (3m)   point group:

     e(  1 -  1) =     -5.69209  eV     1   --> A_1  L_1       
     e(  2 -  2) =      5.61790  eV     1   --> A_1  L_1       
     e(  3 -  4) =      6.22650  eV     2   --> E    L_3       
     e(  5 -  5) =      8.95244  eV     1   --> A_1  L_1       
     e(  6 -  7) =      9.05828  eV     2   --> E    L_3       
     e(  8 -  8) =     10.39098  eV     1   --> A_1  L_1       
     e(  9 - 10) =     13.82107  eV     2   --> E    L_3       
     e( 11 - 11) =     14.47088  eV     1   --> A_1  L_1       
     e( 12 - 12) =     17.23949  eV     1   --> A_1  L_1       

 **************************************************************************

 **************************************************************************

                    xk=(   0.05000,   0.05000,   0.05000  )

     Band symmetry, C_3v (3m)   point group:

     e(  1 -  1) =     -5.73381  eV     1   --> A_1  L_1       
     e(  2 -  2) =      5.98744  eV     1   --> A_1  L_1       
     e(  3 -  4) =      6.29196  eV     2   --> E    L_3       
     e(  5 -  5) =      8.94649  eV     1   --> A_1  L_1       
     e(  6 -  7) =      8.96217  eV     2   --> E    L_3       
     e(  8 -  8) =     10.10137  eV     1   --> A_1  L_1       
     e(  9 - 10) =     13.94424  eV     2   --> E    L_3       
     e( 11 - 11) =     14.29262  eV     1   --> A_1  L_1       
     e( 12 - 12) =     17.38667  eV     1   --> A_1  L_1       

 **************************************************************************

 **************************************************************************

                    xk=(   0.02500,   0.02500,   0.02500  )

     Band symmetry, C_3v (3m)   point group:

     e(  1 -  1) =     -5.75889  eV     1   --> A_1  L_1       
     e(  2 -  2) =      6.25100  eV     1   --> A_1  L_1       
     e(  3 -  4) =      6.33450  eV     2   --> E    L_3       
     e(  5 -  6) =      8.90007  eV     2   --> E    L_3       
     e(  7 -  7) =      8.90496  eV     1   --> A_1  L_1       
     e(  8 -  8) =      9.92601  eV     1   --> A_1  L_1       
     e(  9 - 10) =     14.03086  eV     2   --> E    L_3       
     e( 11 - 11) =     14.18062  eV     1   --> A_1  L_1       
     e( 12 - 12) =     17.48977  eV     1   --> A_1  L_1       

 **************************************************************************

 **************************************************************************

                    xk=(   0.00000,   0.00000,   0.00000  )

     point group O_h (m-3m) 
     there are 10 classes
     the character table:

       E     8C3   3C2   6C4   6C2'  i     8S6   3s_h  6S4   6s_d 
A_1g   1.00  1.00  1.00  1.00  1.00  1.00  1.00  1.00  1.00  1.00
A_2g   1.00  1.00  1.00 -1.00 -1.00  1.00  1.00  1.00 -1.00 -1.00
E_g    2.00 -1.00  2.00  0.00  0.00  2.00 -1.00  2.00  0.00  0.00
T_1g   3.00  0.00 -1.00  1.00 -1.00  3.00  0.00 -1.00  1.00 -1.00
T_2g   3.00  0.00 -1.00 -1.00  1.00  3.00  0.00 -1.00 -1.00  1.00
A_1u   1.00  1.00  1.00  1.00  1.00 -1.00 -1.00 -1.00 -1.00 -1.00
A_2u   1.00  1.00  1.00 -1.00 -1.00 -1.00 -1.00 -1.00  1.00  1.00
E_u    2.00 -1.00  2.00  0.00  0.00 -2.00  1.00 -2.00  0.00  0.00
T_1u   3.00  0.00 -1.00  1.00 -1.00 -3.00  0.00  1.00 -1.00  1.00
T_2u   3.00  0.00 -1.00 -1.00  1.00 -3.00  0.00  1.00  1.00 -1.00

     the symmetry operations in each class and the name of the first element:

     E        1
                                                                 
     8C3     17   19   20   18   24   21   22   23
                                                                 
     3C2      2    4    3
                                                                 
     6C4      7    8   15   16   12   11
                                                                 
     6C2'     5    6   14   13   10    9
                                                                 
     i       25
                                                                 
     8S6     41   43   44   42   48   45   46   47
                                                                 
     3s_h    26   28   27
                                                                 
     6S4     31   32   39   40   36   35
                                                                 
     6s_d    29   30   38   37   34   33
                                                                 

     Band symmetry, O_h (m-3m)  point group:

     e(  1 -  1) =     -5.76725  eV     1   --> A_1g G_1   G_1+
     e(  2 -  4) =      6.34929  eV     3   --> T_2g G_25' G_5+
     e(  5 -  7) =      8.87857  eV     3   --> T_1u G_15  G_4-
     e(  8 -  8) =      9.87008  eV     1   --> A_2u G_2'  G_2-
     e(  9 - 10) =     14.06228  eV     2   --> E_u  G_12' G_3-
     e( 11 - 11) =     14.14248  eV     1   --> A_1g G_1   G_1+
     e( 12 - 12) =     17.52699  eV     1   -->   ?

 **************************************************************************

 **************************************************************************

                    xk=(   0.03333,   0.00000,   0.00000  )

     point group C_4v (4mm) 
     there are  5 classes
     the character table:

       E     2C4   C2    2s_v  2s_d 
A_1    1.00  1.00  1.00  1.00  1.00
A_2    1.00  1.00  1.00 -1.00 -1.00
B_1    1.00 -1.00  1.00  1.00 -1.00
B_2    1.00 -1.00  1.00 -1.00  1.00
E      2.00  0.00 -2.00  0.00  0.00

     the symmetry operations in each class and the name of the first element:

     E        1
                                                                 
     2C4      3    4
                                                                 
     C2       2
                                                                 
     2s_v     5    6
                                                                 
     2s_d     7    8
                                                                 

     Band symmetry, C_4v (4mm)  point group:

     e(  1 -  1) =     -5.76230  eV     1   --> A_1  G_1 D_1   
     e(  2 -  2) =      6.31656  eV     1   --> B_2  G_4 D_2'  
     e(  3 -  4) =      6.32712  eV     2   --> E    G_5 D_5   
     e(  5 -  5) =      8.86560  eV     1   --> A_1  G_1 D_1   
     e(  6 -  7) =      8.90679  eV     2   --> E    G_5 D_5   
     e(  8 -  8) =      9.90216  eV     1   --> B_2  G_4 D_2'  
     e(  9 -  9) =     14.01939  eV     1   --> B_2  G_4 D_2'  
     e( 10 - 10) =     14.06773  eV     1   --> A_2  G_2 D_1'  
     e( 11 - 11) =     14.16514  eV     1   --> A_1  G_1 D_1   
     e( 12 - 12) =     17.53561  eV     1   -->   ?

 **************************************************************************

 **************************************************************************

                    xk=(   0.06667,   0.00000,   0.00000  )

     Band symmetry, C_4v (4mm)  point group:

     e(  1 -  1) =     -5.74743  eV     1   --> A_1  G_1 D_1   
     e(  2 -  2) =      6.22197  eV     1   --> B_2  G_4 D_2'  
     e(  3 -  4) =      6.26351  eV     2   --> E    G_5 D_5   
     e(  5 -  5) =      8.82742  eV     1   --> A_1  G_1 D_1   
     e(  6 -  7) =      8.98856  eV     2   --> E    G_5 D_5   
     e(  8 -  8) =      9.99411  eV     1   --> B_2  G_4 D_2'  
     e(  9 -  9) =     13.89772  eV     1   --> B_2  G_4 D_2'  
     e( 10 - 10) =     14.08410  eV     1   --> A_2  G_2 D_1'  
     e( 11 - 11) =     14.23235  eV     1   --> A_1  G_1 D_1   
     e( 12 - 12) =     17.56147  eV     1   -->   ?

 **************************************************************************

 **************************************************************************

                    xk=(   0.10000,   0.00000,   0.00000  )

     Band symmetry, C_4v (4mm)  point group:

     e(  1 -  1) =     -5.72264  eV     1   --> A_1  G_1 D_1   
     e(  2 -  2) =      6.07461  eV     1   --> B_2  G_4 D_2'  
     e(  3 -  4) =      6.16574  eV     2   --> E    G_5 D_5   
     e(  5 -  5) =      8.76613  eV     1   --> A_1  G_1 D_1   
     e(  6 -  7) =      9.11654  eV     2   --> E    G_5 D_5   
     e(  8 -  8) =     10.13456  eV     1   --> B_2  G_4 D_2'  
     e(  9 -  9) =     13.71512  eV     1   --> B_2  G_4 D_2'  
     e( 10 - 10) =     14.11139  eV     1   --> A_2  G_2 D_1'  
     e( 11 - 11) =     14.34198  eV     1   --> A_1  G_1 D_1   
     e( 12 - 12) =     17.60456  eV     1   -->   ?

 **************************************************************************

 **************************************************************************

                    xk=(   0.13333,   0.00000,   0.00000  )

     Band symmetry, C_4v (4mm)  point group:

     e(  1 -  1) =     -5.68797  eV     1   --> A_1  G_1 D_1   
     e(  2 -  2) =      5.88559  eV     1   --> B_2  G_4 D_2'  
     e(  3 -  4) =      6.04259  eV     2   --> E    G_5 D_5   
     e(  5 -  5) =      8.68479  eV     1   --> A_1  G_1 D_1   
     e(  6 -  7) =      9.28189  eV     2   --> E    G_5 D_5   
     e(  8 -  8) =     10.30780  eV     1   --> B_2  G_4 D_2'  
     e(  9 -  9) =     13.49452  eV     1   --> B_2  G_4 D_2'  
     e( 10 - 10) =     14.14958  eV     1   --> A_2  G_2 D_1'  
     e( 11 - 11) =     14.49085  eV     1   --> A_1  G_1 D_1   
     e( 12 - 12) =     17.66480  eV     1   -->   ?

 **************************************************************************

 **************************************************************************

                    xk=(   0.16667,   0.00000,   0.00000  )

     Band symmetry, C_4v (4mm)  point group:

     e(  1 -  1) =     -5.64346  eV     1   --> A_1  G_1 D_1   
     e(  2 -  2) =      5.66527  eV     1   --> B_2  G_4 D_2'  
     e(  3 -  4) =      5.90216  eV     2   --> E    G_5 D_5   
     e(  5 -  5) =      8.58700  eV     1   --> A_1  G_1 D_1   
     e(  6 -  7) =      9.47639  eV     2   --> E    G_5 D_5   
     e(  8 -  8) =     10.49494  eV     1   --> B_2  G_4 D_2'  
     e(  9 -  9) =     13.26087  eV     1   --> B_2  G_4 D_2'  
     e( 10 - 10) =     14.19867  eV     1   --> A_2  G_2 D_1'  
     e( 11 - 11) =     14.67522  eV     1   --> A_1  G_1 D_1   
     e( 12 - 12) =     17.74214  eV     1   -->   ?

 **************************************************************************

 **************************************************************************

                    xk=(   0.20000,   0.00000,   0.00000  )

     Band symmetry, C_4v (4mm)  point group:

     e(  1 -  1) =     -5.58909  eV     1   --> A_1  G_1 D_1   
     e(  2 -  2) =      5.42198  eV     1   --> B_2  G_4 D_2'  
     e(  3 -  4) =      5.75095  eV     2   --> E    G_5 D_5   
     e(  5 -  5) =      8.47647  eV     1   --> A_1  G_1 D_1   
     e(  6 -  7) =      9.69345  eV     2   --> E    G_5 D_5   
     e(  8 -  8) =     10.67207  eV     1   --> B_2  G_4 D_2'  
     e(  9 -  9) =     13.04264  eV     1   --> B_2  G_4 D_2'  
     e( 10 - 10) =     14.25867  eV     1   --> A_2  G_2 D_1'  
     e( 11 - 11) =     14.89117  eV     1   --> A_1  G_1 D_1   
     e( 12 - 12) =     17.83644  eV     1   -->   ?

 **************************************************************************

 **************************************************************************

                    xk=(   0.23333,   0.00000,   0.00000  )

     Band symmetry, C_4v (4mm)  point group:

     e(  1 -  1) =     -5.52491  eV     1   --> A_1  G_1 D_1   
     e(  2 -  2) =      5.16199  eV     1   --> B_2  G_4 D_2'  
     e(  3 -  4) =      5.59384  eV     2   --> E    G_5 D_5   
     e(  5 -  5) =      8.35675  eV     1   --> A_1  G_1 D_1   
     e(  6 -  7) =      9.92803  eV     2   --> E    G_5 D_5   
     e(  8 -  8) =     10.80637  eV     1   --> B_2  G_4 D_2'  
     e(  9 -  9) =     12.87594  eV     1   --> B_2  G_4 D_2'  
     e( 10 - 10) =     14.32956  eV     1   --> A_2  G_2 D_1'  
     e( 11 - 11) =     15.13488  eV     1   --> A_1  G_1 D_1   
     e( 12 - 12) =     17.94750  eV     1   -->   ?

 **************************************************************************

 **************************************************************************

                    xk=(   0.26667,   0.00000,   0.00000  )

     Band symmetry, C_4v (4mm)  point group:

     e(  1 -  1) =     -5.45097  eV     1   --> A_1  G_1 D_1   
     e(  2 -  2) =      4.88984  eV     1   --> B_2  G_4 D_2'  
     e(  3 -  4) =      5.43442  eV     2   --> E    G_5 D_5   
     e(  5 -  5) =      8.23106  eV     1   --> A_1  G_1 D_1   
     e(  6 -  7) =     10.17641  eV     2   --> E    G_5 D_5   
     e(  8 -  8) =     10.85782  eV     1   --> B_2  G_4 D_2'  
     e(  9 -  9) =     12.80319  eV     1   --> B_2  G_4 D_2'  
     e( 10 - 10) =     14.41134  eV     1   --> A_2  G_2 D_1'  
     e( 11 - 11) =     15.40282  eV     1   --> A_1  G_1 D_1   
     e( 12 - 12) =     18.07500  eV     1   -->   ?

 **************************************************************************

 **************************************************************************

                    xk=(   0.30000,   0.00000,   0.00000  )

     Band symmetry, C_4v (4mm)  point group:

     e(  1 -  1) =     -5.36731  eV     1   --> A_1  G_1 D_1   
     e(  2 -  2) =      4.60878  eV     1   --> B_2  G_4 D_2'  
     e(  3 -  4) =      5.27528  eV     2   --> E    G_5 D_5   
     e(  5 -  5) =      8.10217  eV     1   --> A_1  G_1 D_1   
     e(  6 -  7) =     10.43583  eV     2   --> E    G_5 D_5   
     e(  8 -  8) =     10.80045  eV     1   --> B_2  G_4 D_2'  
     e(  9 -  9) =     12.85208  eV     1   --> B_2  G_4 D_2'  
     e( 10 - 10) =     14.50399  eV     1   --> A_2  G_2 D_1'  
     e( 11 - 11) =     15.69175  eV     1   --> A_1  G_1 D_1   
     e( 12 - 12) =     18.21848  eV     1   -->   ?

 **************************************************************************

 **************************************************************************

                    xk=(   0.33333,   0.00000,   0.00000  )

     Band symmetry, C_4v (4mm)  point group:

     e(  1 -  1) =     -5.27396  eV     1   --> A_1  G_1 D_1   
     e(  2 -  2) =      4.32114  eV     1   --> B_2  G_4 D_2'  
     e(  3 -  4) =      5.11834  eV     2   --> E    G_5 D_5   
     e(  5 -  5) =      7.97249  eV     1   --> A_1  G_1 D_1   
     e(  6 -  6) =     10.64591  eV     1   --> B_2  G_4 D_2'  
     e(  7 -  8) =     10.70422  eV     2   --> E    G_5 D_5   
     e(  9 -  9) =     13.01223  eV     1   --> B_2  G_4 D_2'  
     e( 10 - 10) =     14.60752  eV     1   --> A_2  G_2 D_1'  
     e( 11 - 11) =     15.99872  eV     1   --> A_1  G_1 D_1   
     e( 12 - 12) =     18.37724  eV     1   -->   ?

 **************************************************************************

 **************************************************************************

                    xk=(   0.36667,   0.00000,   0.00000  )

     Band symmetry, C_4v (4mm)  point group:

     e(  1 -  1) =     -5.17101  eV     1   --> A_1  G_1 D_1   
     e(  2 -  2) =      4.02859  eV     1   --> B_2  G_4 D_2'  
     e(  3 -  4) =      4.96503  eV     2   --> E    G_5 D_5   
     e(  5 -  5) =      7.84403  eV     1   --> A_1  G_1 D_1   
     e(  6 -  6) =     10.42818  eV     1   --> B_2  G_4 D_2'  
     e(  7 -  8) =     10.97999  eV     2   --> E    G_5 D_5   
     e(  9 -  9) =     13.25050  eV     1   --> B_2  G_4 D_2'  
     e( 10 - 10) =     14.72190  eV     1   --> A_2  G_2 D_1'  
     e( 11 - 11) =     16.32102  eV     1   --> A_1  G_1 D_1   
     e( 12 - 12) =     18.55025  eV     1   -->   ?

 **************************************************************************

 **************************************************************************

                    xk=(   0.40000,   0.00000,   0.00000  )

     Band symmetry, C_4v (4mm)  point group:

     e(  1 -  1) =     -5.05853  eV     1   --> A_1  G_1 D_1   
     e(  2 -  2) =      3.73237  eV     1   --> B_2  G_4 D_2'  
     e(  3 -  4) =      4.81644  eV     2   --> E    G_5 D_5   
     e(  5 -  5) =      7.71848  eV     1   --> A_1  G_1 D_1   
     e(  6 -  6) =     10.17708  eV     1   --> B_2  G_4 D_2'  
     e(  7 -  8) =     11.26192  eV     2   --> E    G_5 D_5   
     e(  9 -  9) =     13.53758  eV     1   --> B_2  G_4 D_2'  
     e( 10 - 10) =     14.84713  eV     1   --> A_2  G_2 D_1'  
     e( 11 - 11) =     16.65604  eV     1   --> A_1  G_1 D_1   
     e( 12 - 12) =     18.73595  eV     1   -->   ?

 **************************************************************************

 **************************************************************************

                    xk=(   0.43333,   0.00000,   0.00000  )

     Band symmetry, C_4v (4mm)  point group:

     e(  1 -  1) =     -4.93658  eV     1   --> A_1  G_1 D_1   
     e(  2 -  2) =      3.43344  eV     1   --> B_2  G_4 D_2'  
     e(  3 -  4) =      4.67339  eV     2   --> E    G_5 D_5   
     e(  5 -  5) =      7.59724  eV     1   --> A_1  G_1 D_1   
     e(  6 -  6) =      9.91156  eV     1   --> B_2  G_4 D_2'  
     e(  7 -  8) =     11.54906  eV     2   --> E    G_5 D_5   
     e(  9 -  9) =     13.85482  eV     1   --> B_2  G_4 D_2'  
     e( 10 - 10) =     14.98318  eV     1   --> A_2  G_2 D_1'  
     e( 11 - 11) =     17.00120  eV     1   --> A_1  G_1 D_1   
     e( 12 - 12) =     18.93199  eV     1   -->   ?

 **************************************************************************

 **************************************************************************

                    xk=(   0.46667,   0.00000,   0.00000  )

     Band symmetry, C_4v (4mm)  point group:

     e(  1 -  1) =     -4.80525  eV     1   --> A_1  G_1 D_1   
     e(  2 -  2) =      3.13252  eV     1   --> B_2  G_4 D_2'  
     e(  3 -  4) =      4.53654  eV     2   --> E    G_5 D_5   
     e(  5 -  5) =      7.48151  eV     1   --> A_1  G_1 D_1   
     e(  6 -  6) =      9.64276  eV     1   --> B_2  G_4 D_2'  
     e(  7 -  8) =     11.84068  eV     2   --> E    G_5 D_5   
     e(  9 -  9) =     14.19109  eV     1   --> B_2  G_4 D_2'  
     e( 10 - 10) =     15.13006  eV     1   --> A_2  G_2 D_1'  
     e( 11 - 11) =     17.35381  eV     1   --> A_1  G_1 D_1   
     e( 12 - 12) =     19.13478  eV     1   -->   ?

 **************************************************************************

 **************************************************************************

                    xk=(   0.50000,   0.00000,   0.00000  )

     Band symmetry, C_4v (4mm)  point group:

     e(  1 -  1) =     -4.66464  eV     1   --> A_1  G_1 D_1   
     e(  2 -  2) =      2.83024  eV     1   --> B_2  G_4 D_2'  
     e(  3 -  4) =      4.40640  eV     2   --> E    G_5 D_5   
     e(  5 -  5) =      7.37228  eV     1   --> A_1  G_1 D_1   
     e(  6 -  6) =      9.37730  eV     1   --> B_2  G_4 D_2'  
     e(  7 -  8) =     12.13618  eV     2   --> E    G_5 D_5   
     e(  9 -  9) =     14.53952  eV     1   --> B_2  G_4 D_2'  
     e( 10 - 10) =     15.28772  eV     1   --> A_2  G_2 D_1'  
     e( 11 - 11) =     17.71087  eV     1   --> A_1  G_1 D_1   
     e( 12 - 12) =     19.33871  eV     1   -->   ?

 **************************************************************************

 **************************************************************************

                    xk=(   0.53333,   0.00000,   0.00000  )

     Band symmetry, C_4v (4mm)  point group:

     e(  1 -  1) =     -4.51485  eV     1   --> A_1  G_1 D_1   
     e(  2 -  2) =      2.52712  eV     1   --> B_2  G_4 D_2'  
     e(  3 -  4) =      4.28338  eV     2   --> E    G_5 D_5   
     e(  5 -  5) =      7.27041  eV     1   --> A_1  G_1 D_1   
     e(  6 -  6) =      9.11931  eV     1   --> B_2  G_4 D_2'  
     e(  7 -  8) =     12.43509  eV     2   --> E    G_5 D_5   
     e(  9 -  9) =     14.89558  eV     1   --> B_2  G_4 D_2'  
     e( 10 - 10) =     15.45617  eV     1   --> A_2  G_2 D_1'  
     e( 11 - 11) =     18.06892  eV     1   --> A_1  G_1 D_1   
     e( 12 - 12) =     19.53490  eV     1   -->   ?

 **************************************************************************

 **************************************************************************

                    xk=(   0.56667,   0.00000,   0.00000  )

     Band symmetry, C_4v (4mm)  point group:

     e(  1 -  1) =     -4.35599  eV     1   --> A_1  G_1 D_1   
     e(  2 -  2) =      2.22364  eV     1   --> B_2  G_4 D_2'  
     e(  3 -  4) =      4.16783  eV     2   --> E    G_5 D_5   
     e(  5 -  5) =      7.17663  eV     1   --> A_1  G_1 D_1   
     e(  6 -  6) =      8.87145  eV     1   --> B_2  G_4 D_2'  
     e(  7 -  8) =     12.73708  eV     2   --> E    G_5 D_5   
     e(  9 -  9) =     15.25606  eV     1   --> B_2  G_4 D_2'  
     e( 10 - 10) =     15.63537  eV     1   --> A_2  G_2 D_1'  
     e( 11 - 11) =     18.42378  eV     1   --> A_1  G_1 D_1   
     e( 12 - 12) =     19.70940  eV     1   -->   ?

 **************************************************************************

 **************************************************************************

                    xk=(   0.60000,   0.00000,   0.00000  )

     Band symmetry, C_4v (4mm)  point group:

     e(  1 -  1) =     -4.18819  eV     1   --> A_1  G_1 D_1   
     e(  2 -  2) =      1.92030  eV     1   --> B_2  G_4 D_2'  
     e(  3 -  4) =      4.06003  eV     2   --> E    G_5 D_5   
     e(  5 -  5) =      7.09158  eV     1   --> A_1  G_1 D_1   
     e(  6 -  6) =      8.63548  eV     1   --> B_2  G_4 D_2'  
     e(  7 -  8) =     13.04188  eV     2   --> E    G_5 D_5   
     e(  9 -  9) =     15.61847  eV     1   --> B_2  G_4 D_2'  
     e( 10 - 10) =     15.82530  eV     1   --> A_2  G_2 D_1'  
     e( 11 - 11) =     18.77023  eV     1   --> A_1  G_1 D_1   
     e( 12 - 12) =     19.84151  eV     1   -->   ?

 **************************************************************************

 **************************************************************************

                    xk=(   0.63333,   0.00000,   0.00000  )

     Band symmetry, C_4v (4mm)  point group:

     e(  1 -  1) =     -4.01158  eV     1   --> A_1  G_1 D_1   
     e(  2 -  2) =      1.61756  eV     1   --> B_2  G_4 D_2'  
     e(  3 -  4) =      3.96020  eV     2   --> E    G_5 D_5   
     e(  5 -  5) =      7.01580  eV     1   --> A_1  G_1 D_1   
     e(  6 -  6) =      8.41256  eV     1   --> B_2  G_4 D_2'  
     e(  7 -  8) =     13.34929  eV     2   --> E    G_5 D_5   
     e(  9 -  9) =     15.98080  eV     1   --> B_2  G_4 D_2'  
     e( 10 - 10) =     16.02594  eV     1   --> A_2  G_2 D_1'  
     e( 11 - 11) =     19.10166  eV     1   --> A_1  G_1 D_1   
     e( 12 - 12) =     19.90503  eV     1   -->   ?

 **************************************************************************

 **************************************************************************

                    xk=(   0.66667,   0.00000,   0.00000  )

     Band symmetry, C_4v (4mm)  point group:

     e(  1 -  1) =     -3.82632  eV     1   --> A_1  G_1 D_1   
     e(  2 -  2) =      1.31585  eV     1   --> B_2  G_4 D_2'  
     e(  3 -  4) =      3.86854  eV     2   --> E    G_5 D_5   
     e(  5 -  5) =      6.94980  eV     1   --> A_1  G_1 D_1   
     e(  6 -  6) =      8.20346  eV     1   --> B_2  G_4 D_2'  
     e(  7 -  8) =     13.65916  eV     2   --> E    G_5 D_5   
     e(  9 -  9) =     16.23726  eV     1   --> A_2  G_2 D_1'  
     e( 10 - 10) =     16.34132  eV     1   --> B_2  G_4 D_2'  
     e( 11 - 11) =     19.40976  eV     1   --> A_1  G_1 D_1   
     e( 12 - 12) =     19.87765  eV     1   -->   ?

 **************************************************************************

 **************************************************************************

                    xk=(   0.70000,   0.00000,   0.00000  )

     Band symmetry, C_4v (4mm)  point group:

     e(  1 -  1) =     -3.63258  eV     1   --> A_1  G_1 D_1   
     e(  2 -  2) =      1.01563  eV     1   --> B_2  G_4 D_2'  
     e(  3 -  4) =      3.78520  eV     2   --> E    G_5 D_5   
     e(  5 -  5) =      6.89401  eV     1   --> A_1  G_1 D_1   
     e(  6 -  6) =      8.00867  eV     1   --> B_2  G_4 D_2'  
     e(  7 -  8) =     13.97135  eV     2   --> E    G_5 D_5   
     e(  9 -  9) =     16.45923  eV     1   --> A_2  G_2 D_1'  
     e( 10 - 10) =     16.69851  eV     1   --> B_2  G_4 D_2'  
     e( 11 - 11) =     19.68437  eV     1   --> A_1  G_1 D_1   
     e( 12 - 12) =     19.75510  eV     1   -->   ?

 **************************************************************************

 **************************************************************************

                    xk=(   0.73333,   0.00000,   0.00000  )

     Band symmetry, C_4v (4mm)  point group:

     e(  1 -  1) =     -3.43052  eV     1   --> A_1  G_1 D_1   
     e(  2 -  2) =      0.71741  eV     1   --> B_2  G_4 D_2'  
     e(  3 -  4) =      3.71033  eV     2   --> E    G_5 D_5   
     e(  5 -  5) =      6.84884  eV     1   --> A_1  G_1 D_1   
     e(  6 -  6) =      7.82847  eV     1   --> B_2  G_4 D_2'  
     e(  7 -  8) =     14.28571  eV     2   --> E    G_5 D_5   
     e(  9 -  9) =     16.69182  eV     1   --> A_2  G_2 D_1'  
     e( 10 - 10) =     17.05100  eV     1   --> B_2  G_4 D_2'  
     e( 11 - 12) =     19.55346  eV     2   --> E    G_5 D_5   

 **************************************************************************

 **************************************************************************

                    xk=(   0.76667,   0.00000,   0.00000  )

     Band symmetry, C_4v (4mm)  point group:

     e(  1 -  1) =     -3.22035  eV     1   --> A_1  G_1 D_1   
     e(  2 -  2) =      0.42163  eV     1   --> B_2  G_4 D_2'  
     e(  3 -  4) =      3.64403  eV     2   --> E    G_5 D_5   
     e(  5 -  5) =      6.81466  eV     1   --> A_1  G_1 D_1   
     e(  6 -  6) =      7.66301  eV     1   --> B_2  G_4 D_2'  
     e(  7 -  8) =     14.60203  eV     2   --> E    G_5 D_5   
     e(  9 -  9) =     16.93498  eV     1   --> A_2  G_2 D_1'  
     e( 10 - 10) =     17.39749  eV     1   --> B_2  G_4 D_2'  
     e( 11 - 12) =     19.29664  eV     2   --> E    G_5 D_5   

 **************************************************************************

 **************************************************************************

                    xk=(   0.80000,   0.00000,   0.00000  )

     Band symmetry, C_4v (4mm)  point group:

     e(  1 -  1) =     -3.00225  eV     1   --> A_1  G_1 D_1   
     e(  2 -  2) =      0.12878  eV     1   --> B_2  G_4 D_2'  
     e(  3 -  4) =      3.58640  eV     2   --> E    G_5 D_5   
     e(  5 -  5) =      6.79184  eV     1   --> A_1  G_1 D_1   
     e(  6 -  6) =      7.51231  eV     1   --> B_2  G_4 D_2'  
     e(  7 -  8) =     14.91992  eV     2   --> E    G_5 D_5   
     e(  9 -  9) =     17.18868  eV     1   --> A_2  G_2 D_1'  
     e( 10 - 10) =     17.73669  eV     1   --> B_2  G_4 D_2'  
     e( 11 - 12) =     19.00537  eV     2   --> E    G_5 D_5   

 **************************************************************************

 **************************************************************************

                    xk=(   0.83333,   0.00000,   0.00000  )

     Band symmetry, C_4v (4mm)  point group:

     e(  1 -  1) =     -2.77648  eV     1   --> A_1  G_1 D_1   
     e(  2 -  2) =     -0.16070  eV     1   --> B_2  G_4 D_2'  
     e(  3 -  4) =      3.53751  eV     2   --> E    G_5 D_5   
     e(  5 -  5) =      6.78069  eV     1   --> A_1  G_1 D_1   
     e(  6 -  6) =      7.37629  eV     1   --> B_2  G_4 D_2'  
     e(  7 -  8) =     15.23869  eV     2   --> E    G_5 D_5   
     e(  9 -  9) =     17.45287  eV     1   --> A_2  G_2 D_1'  
     e( 10 - 10) =     18.06724  eV     1   --> B_2  G_4 D_2'  
     e( 11 - 12) =     18.69452  eV     2   --> E    G_5 D_5   

 **************************************************************************

 **************************************************************************

                    xk=(   0.86667,   0.00000,   0.00000  )

     Band symmetry, C_4v (4mm)  point group:

     e(  1 -  1) =     -2.54328  eV     1   --> A_1  G_1 D_1   
     e(  2 -  2) =     -0.44633  eV     1   --> B_2  G_4 D_2'  
     e(  3 -  4) =      3.49744  eV     2   --> E    G_5 D_5   
     e(  5 -  5) =      6.78153  eV     1   --> A_1  G_1 D_1   
     e(  6 -  6) =      7.25485  eV     1   --> B_2  G_4 D_2'  
     e(  7 -  8) =     15.55690  eV     2   --> E    G_5 D_5   
     e(  9 -  9) =     17.72751  eV     1   --> A_2  G_2 D_1'  
     e( 10 - 11) =     18.37460  eV     2   --> E    G_5 D_5   
     e( 12 - 12) =     18.38763  eV     1   --> B_2  G_4 D_2'  

 **************************************************************************

 **************************************************************************

                    xk=(   0.90000,   0.00000,   0.00000  )

     Band symmetry, C_4v (4mm)  point group:

     e(  1 -  1) =     -2.30291  eV     1   --> A_1  G_1 D_1   
     e(  2 -  2) =     -0.72767  eV     1   --> B_2  G_4 D_2'  
     e(  3 -  4) =      3.46621  eV     2   --> E    G_5 D_5   
     e(  5 -  5) =      6.79467  eV     1   --> A_1  G_1 D_1   
     e(  6 -  6) =      7.14780  eV     1   --> B_2  G_4 D_2'  
     e(  7 -  8) =     15.87135  eV     2   --> E    G_5 D_5   
     e(  9 -  9) =     18.01255  eV     1   --> A_2  G_2 D_1'  
     e( 10 - 11) =     18.05449  eV     2   --> E    G_5 D_5   
     e( 12 - 12) =     18.69601  eV     1   --> B_2  G_4 D_2'  

 **************************************************************************

 **************************************************************************

                    xk=(   0.93333,   0.00000,   0.00000  )

     Band symmetry, C_4v (4mm)  point group:

     e(  1 -  1) =     -2.05565  eV     1   --> A_1  G_1 D_1   
     e(  2 -  2) =     -1.00428  eV     1   --> B_2  G_4 D_2'  
     e(  3 -  4) =      3.44389  eV     2   --> E    G_5 D_5   
     e(  5 -  5) =      6.82040  eV     1   --> A_1  G_1 D_1   
     e(  6 -  6) =      7.05493  eV     1   --> B_2  G_4 D_2'  
     e(  7 -  8) =     16.17366  eV     2   --> E    G_5 D_5   
     e(  9 - 10) =     17.74610  eV     2   --> E    G_5 D_5   
     e( 11 - 11) =     18.30792  eV     1   --> A_2  G_2 D_1'  
     e( 12 - 12) =     18.99006  eV     1   --> B_2  G_4 D_2'  

 **************************************************************************

 **************************************************************************

                    xk=(   0.96667,   0.00000,   0.00000  )

     Band symmetry, C_4v (4mm)  point group:

     e(  1 -  1) =     -1.80183  eV     1   --> A_1  G_1 D_1   
     e(  2 -  2) =     -1.27579  eV     1   --> B_2  G_4 D_2'  
     e(  3 -  4) =      3.43048  eV     2   --> E    G_5 D_5   
     e(  5 -  5) =      6.85902  eV     1   --> A_1  G_1 D_1   
     e(  6 -  6) =      6.97601  eV     1   --> B_2  G_4 D_2'  
     e(  7 -  8) =     16.43639  eV     2   --> E    G_5 D_5   
     e(  9 - 10) =     17.47898  eV     2   --> E    G_5 D_5   
     e( 11 - 11) =     18.61356  eV     1   --> A_2  G_2 D_1'  
     e( 12 - 12) =     19.25536  eV     1   --> B_1  G_3 D_2   

 **************************************************************************

 **************************************************************************

                    xk=(   1.00000,   0.00000,   0.00000  )

     zone border point and non-symmorphic group 
     symmetry decomposition not available

 **************************************************************************

 **************************************************************************

                    xk=(   1.00000,   0.02500,   0.02500  )

     zone border point and non-symmorphic group 
     symmetry decomposition not available

 **************************************************************************

 **************************************************************************

                    xk=(   1.00000,   0.05000,   0.05000  )

     zone border point and non-symmorphic group 
     symmetry decomposition not available

 **************************************************************************

 **************************************************************************

                    xk=(   1.00000,   0.07500,   0.07500  )

     zone border point and non-symmorphic group 
     symmetry decomposition not available

 **************************************************************************

 **************************************************************************

                    xk=(   1.00000,   0.10000,   0.10000  )

     zone border point and non-symmorphic group 
     symmetry decomposition not available

 **************************************************************************

 **************************************************************************

                    xk=(   1.00000,   0.12500,   0.12500  )

     zone border point and non-symmorphic group 
     symmetry decomposition not available

 **************************************************************************

 **************************************************************************

                    xk=(   1.00000,   0.15000,   0.15000  )

     zone border point and non-symmorphic group 
     symmetry decomposition not available

 **************************************************************************

 **************************************************************************

                    xk=(   1.00000,   0.17500,   0.17500  )

     zone border point and non-symmorphic group 
     symmetry decomposition not available

 **************************************************************************

 **************************************************************************

                    xk=(   1.00000,   0.20000,   0.20000  )

     zone border point and non-symmorphic group 
     symmetry decomposition not available

 **************************************************************************

 **************************************************************************

                    xk=(   1.00000,   0.22500,   0.22500  )

     zone border point and non-symmorphic group 
     symmetry decomposition not available

 **************************************************************************

 **************************************************************************

                    xk=(   1.00000,   0.25000,   0.25000  )

     zone border point and non-symmorphic group 
     symmetry decomposition not available

 **************************************************************************

 **************************************************************************

                    xk=(   0.96667,   0.24167,   0.24167  )

     point group C_s (m)    
     there are  2 classes
     the character table:

       E     s    
A'     1.00  1.00
A''    1.00 -1.00

     the symmetry operations in each class and the name of the first element:

     E        1
                                                                 
     s        2
                                                                 

     Band symmetry, C_s (m)     point group:

     e(  1 -  1) =     -1.95293  eV     1   --> A'             
     e(  2 -  2) =     -0.94649  eV     1   --> A'             
     e(  3 -  3) =      1.94736  eV     1   --> A'             
     e(  4 -  4) =      3.83979  eV     1   --> A''            
     e(  5 -  5) =      7.39473  eV     1   --> A'             
     e(  6 -  6) =     10.24891  eV     1   --> A'             
     e(  7 -  7) =     13.87653  eV     1   --> A''            
     e(  8 -  8) =     14.27325  eV     1   --> A'             
     e(  9 -  9) =     14.96103  eV     1   --> A'             
     e( 10 - 10) =     15.02357  eV     1   --> A''            
     e( 11 - 11) =     21.02628  eV     1   --> A''            
     e( 12 - 12) =     21.06638  eV     1   --> A'             

 **************************************************************************

 **************************************************************************

                    xk=(   0.93333,   0.23333,   0.23333  )

     Band symmetry, C_s (m)     point group:

     e(  1 -  1) =     -2.04229  eV     1   --> A'             
     e(  2 -  2) =     -0.86799  eV     1   --> A'             
     e(  3 -  3) =      2.02409  eV     1   --> A'             
     e(  4 -  4) =      3.82510  eV     1   --> A''            
     e(  5 -  5) =      7.38106  eV     1   --> A'             
     e(  6 -  6) =     10.09887  eV     1   --> A'             
     e(  7 -  7) =     13.78306  eV     1   --> A''            
     e(  8 -  8) =     14.05948  eV     1   --> A'             
     e(  9 -  9) =     15.34233  eV     1   --> A''            
     e( 10 - 10) =     15.36196  eV     1   --> A'             
     e( 11 - 11) =     20.57167  eV     1   --> A''            
     e( 12 - 12) =     20.86496  eV     1   --> A'             

 **************************************************************************

 **************************************************************************

                    xk=(   0.90000,   0.22500,   0.22500  )

     Band symmetry, C_s (m)     point group:

     e(  1 -  1) =     -2.19304  eV     1   --> A'             
     e(  2 -  2) =     -0.72850  eV     1   --> A'             
     e(  3 -  3) =      2.12600  eV     1   --> A'             
     e(  4 -  4) =      3.81968  eV     1   --> A''            
     e(  5 -  5) =      7.38017  eV     1   --> A'             
     e(  6 -  6) =      9.96291  eV     1   --> A'             
     e(  7 -  7) =     13.64479  eV     1   --> A''            
     e(  8 -  8) =     13.83776  eV     1   --> A'             
     e(  9 -  9) =     15.72360  eV     1   --> A''            
     e( 10 - 10) =     15.76580  eV     1   --> A'             
     e( 11 - 11) =     20.09532  eV     1   --> A''            
     e( 12 - 12) =     20.57768  eV     1   --> A'             

 **************************************************************************

 **************************************************************************

                    xk=(   0.86667,   0.21667,   0.21667  )

     Band symmetry, C_s (m)     point group:

     e(  1 -  1) =     -2.37841  eV     1   --> A'             
     e(  2 -  2) =     -0.55111  eV     1   --> A'             
     e(  3 -  3) =      2.24904  eV     1   --> A'             
     e(  4 -  4) =      3.82365  eV     1   --> A''            
     e(  5 -  5) =      7.39167  eV     1   --> A'             
     e(  6 -  6) =      9.84198  eV     1   --> A'             
     e(  7 -  7) =     13.49146  eV     1   --> A''            
     e(  8 -  8) =     13.61484  eV     1   --> A'             
     e(  9 -  9) =     16.13609  eV     1   --> A''            
     e( 10 - 10) =     16.16107  eV     1   --> A'             
     e( 11 - 11) =     19.62034  eV     1   --> A''            
     e( 12 - 12) =     20.21794  eV     1   --> A'             

 **************************************************************************

 **************************************************************************

                    xk=(   0.83333,   0.20833,   0.20833  )

     Band symmetry, C_s (m)     point group:

     e(  1 -  1) =     -2.58141  eV     1   --> A'             
     e(  2 -  2) =     -0.34985  eV     1   --> A'             
     e(  3 -  3) =      2.38980  eV     1   --> A'             
     e(  4 -  4) =      3.83709  eV     1   --> A''            
     e(  5 -  5) =      7.41499  eV     1   --> A'             
     e(  6 -  6) =      9.73720  eV     1   --> A'             
     e(  7 -  7) =     13.33385  eV     1   --> A''            
     e(  8 -  8) =     13.39233  eV     1   --> A'             
     e(  9 -  9) =     16.53853  eV     1   --> A'             
     e( 10 - 10) =     16.56676  eV     1   --> A''            
     e( 11 - 11) =     19.15389  eV     1   --> A''            
     e( 12 - 12) =     19.80973  eV     1   --> A'             

 **************************************************************************

 **************************************************************************

                    xk=(   0.80000,   0.20000,   0.20000  )

     Band symmetry, C_s (m)     point group:

     e(  1 -  1) =     -2.79243  eV     1   --> A'             
     e(  2 -  2) =     -0.13202  eV     1   --> A'             
     e(  3 -  3) =      2.54543  eV     1   --> A'             
     e(  4 -  4) =      3.86006  eV     1   --> A''            
     e(  5 -  5) =      7.44928  eV     1   --> A'             
     e(  6 -  6) =      9.64985  eV     1   --> A'             
     e(  7 -  7) =     13.17084  eV     1   --> A'             
     e(  8 -  8) =     13.17602  eV     1   --> A''            
     e(  9 -  9) =     16.88550  eV     1   --> A'             
     e( 10 - 10) =     17.00748  eV     1   --> A''            
     e( 11 - 11) =     18.70103  eV     1   --> A''            
     e( 12 - 12) =     19.37584  eV     1   --> A'             

 **************************************************************************

 **************************************************************************

                    xk=(   0.76667,   0.19167,   0.19167  )

     Band symmetry, C_s (m)     point group:

     e(  1 -  1) =     -3.00585  eV     1   --> A'             
     e(  2 -  2) =      0.09857  eV     1   --> A'             
     e(  3 -  3) =      2.71348  eV     1   --> A'             
     e(  4 -  4) =      3.89260  eV     1   --> A''            
     e(  5 -  5) =      7.49337  eV     1   --> A'             
     e(  6 -  6) =      9.58147  eV     1   --> A'             
     e(  7 -  7) =     12.95065  eV     1   --> A'             
     e(  8 -  8) =     13.01933  eV     1   --> A''            
     e(  9 -  9) =     17.18353  eV     1   --> A'             
     e( 10 - 10) =     17.44396  eV     1   --> A''            
     e( 11 - 11) =     18.27390  eV     1   --> A''            
     e( 12 - 12) =     18.92940  eV     1   --> A'             

 **************************************************************************

 **************************************************************************

                    xk=(   0.73333,   0.18333,   0.18333  )

     Band symmetry, C_s (m)     point group:

     e(  1 -  1) =     -3.21816  eV     1   --> A'             
     e(  2 -  2) =      0.33981  eV     1   --> A'             
     e(  3 -  3) =      2.89182  eV     1   --> A'             
     e(  4 -  4) =      3.93470  eV     1   --> A''            
     e(  5 -  5) =      7.54576  eV     1   --> A'             
     e(  6 -  6) =      9.53387  eV     1   --> A'             
     e(  7 -  7) =     12.73195  eV     1   --> A'             
     e(  8 -  8) =     12.86387  eV     1   --> A''            
     e(  9 -  9) =     17.40832  eV     1   --> A'             
     e( 10 - 10) =     17.69075  eV     1   --> A''            
     e( 11 - 11) =     18.05551  eV     1   --> A''            
     e( 12 - 12) =     18.47868  eV     1   --> A'             

 **************************************************************************

 **************************************************************************

                    xk=(   0.70000,   0.17500,   0.17500  )

     Band symmetry, C_s (m)     point group:

     e(  1 -  1) =     -3.42699  eV     1   --> A'             
     e(  2 -  2) =      0.59044  eV     1   --> A'             
     e(  3 -  3) =      3.07853  eV     1   --> A'             
     e(  4 -  4) =      3.98636  eV     1   --> A''            
     e(  5 -  5) =      7.60460  eV     1   --> A'             
     e(  6 -  6) =      9.50909  eV     1   --> A'             
     e(  7 -  7) =     12.51489  eV     1   --> A'             
     e(  8 -  8) =     12.70900  eV     1   --> A''            
     e(  9 -  9) =     17.36296  eV     1   --> A''            
     e( 10 - 10) =     17.53144  eV     1   --> A'             
     e( 11 - 11) =     18.03651  eV     1   --> A'             
     e( 12 - 12) =     18.42686  eV     1   --> A''            

 **************************************************************************

 **************************************************************************

                    xk=(   0.66667,   0.16667,   0.16667  )

     Band symmetry, C_s (m)     point group:

     e(  1 -  1) =     -3.63070  eV     1   --> A'             
     e(  2 -  2) =      0.84966  eV     1   --> A'             
     e(  3 -  3) =      3.27189  eV     1   --> A'             
     e(  4 -  4) =      4.04752  eV     1   --> A''            
     e(  5 -  5) =      7.66776  eV     1   --> A'             
     e(  6 -  6) =      9.50928  eV     1   --> A'             
     e(  7 -  7) =     12.29968  eV     1   --> A'             
     e(  8 -  8) =     12.55357  eV     1   --> A''            
     e(  9 -  9) =     16.97838  eV     1   --> A''            
     e( 10 - 10) =     17.44890  eV     1   --> A'             
     e( 11 - 11) =     17.70640  eV     1   --> A'             
     e( 12 - 12) =     18.86281  eV     1   --> A''            

 **************************************************************************

 **************************************************************************

                    xk=(   0.63333,   0.15833,   0.15833  )

     Band symmetry, C_s (m)     point group:

     e(  1 -  1) =     -3.82805  eV     1   --> A'             
     e(  2 -  2) =      1.11692  eV     1   --> A'             
     e(  3 -  3) =      3.47028  eV     1   --> A'             
     e(  4 -  4) =      4.11811  eV     1   --> A''            
     e(  5 -  5) =      7.73305  eV     1   --> A'             
     e(  6 -  6) =      9.53646  eV     1   --> A'             
     e(  7 -  7) =     12.08662  eV     1   --> A'             
     e(  8 -  8) =     12.39604  eV     1   --> A''            
     e(  9 -  9) =     16.60645  eV     1   --> A''            
     e( 10 - 10) =     17.05287  eV     1   --> A'             
     e( 11 - 11) =     17.61480  eV     1   --> A'             
     e( 12 - 12) =     19.27934  eV     1   --> A''            

 **************************************************************************

 **************************************************************************

                    xk=(   0.60000,   0.15000,   0.15000  )

     Band symmetry, C_s (m)     point group:

     e(  1 -  1) =     -4.01812  eV     1   --> A'             
     e(  2 -  2) =      1.39180  eV     1   --> A'             
     e(  3 -  3) =      3.67222  eV     1   --> A'             
     e(  4 -  4) =      4.19802  eV     1   --> A''            
     e(  5 -  5) =      7.79850  eV     1   --> A'             
     e(  6 -  6) =      9.59208  eV     1   --> A'             
     e(  7 -  7) =     11.87619  eV     1   --> A'             
     e(  8 -  8) =     12.23460  eV     1   --> A''            
     e(  9 -  9) =     16.25487  eV     1   --> A''            
     e( 10 - 10) =     16.60575  eV     1   --> A'             
     e( 11 - 11) =     17.52512  eV     1   --> A'             
     e( 12 - 12) =     19.63987  eV     1   --> A''            

 **************************************************************************

 **************************************************************************

                    xk=(   0.56667,   0.14167,   0.14167  )

     Band symmetry, C_s (m)     point group:

     e(  1 -  1) =     -4.20020  eV     1   --> A'             
     e(  2 -  2) =      1.67395  eV     1   --> A'             
     e(  3 -  3) =      3.87628  eV     1   --> A'             
     e(  4 -  4) =      4.28711  eV     1   --> A''            
     e(  5 -  5) =      7.86268  eV     1   --> A'             
     e(  6 -  6) =      9.67650  eV     1   --> A'             
     e(  7 -  7) =     11.66917  eV     1   --> A'             
     e(  8 -  8) =     12.06730  eV     1   --> A''            
     e(  9 -  9) =     15.92720  eV     1   --> A''            
     e( 10 - 10) =     16.15501  eV     1   --> A'             
     e( 11 - 11) =     17.41109  eV     1   --> A'             
     e( 12 - 12) =     19.61475  eV     1   --> A'             

 **************************************************************************

 **************************************************************************

                    xk=(   0.53333,   0.13333,   0.13333  )

     Band symmetry, C_s (m)     point group:

     e(  1 -  1) =     -4.37373  eV     1   --> A'             
     e(  2 -  2) =      1.96303  eV     1   --> A'             
     e(  3 -  3) =      4.08113  eV     1   --> A'             
     e(  4 -  4) =      4.38519  eV     1   --> A''            
     e(  5 -  5) =      7.92499  eV     1   --> A'             
     e(  6 -  6) =      9.78841  eV     1   --> A'             
     e(  7 -  7) =     11.46688  eV     1   --> A'             
     e(  8 -  8) =     11.89219  eV     1   --> A''            
     e(  9 -  9) =     15.62604  eV     1   --> A''            
     e( 10 - 10) =     15.70714  eV     1   --> A'             
     e( 11 - 11) =     17.27952  eV     1   --> A'             
     e( 12 - 12) =     19.27616  eV     1   --> A'             

 **************************************************************************

 **************************************************************************

                    xk=(   0.50000,   0.12500,   0.12500  )

     Band symmetry, C_s (m)     point group:

     e(  1 -  1) =     -4.53823  eV     1   --> A'             
     e(  2 -  2) =      2.25871  eV     1   --> A'             
     e(  3 -  3) =      4.28551  eV     1   --> A'             
     e(  4 -  4) =      4.49201  eV     1   --> A''            
     e(  5 -  5) =      7.98567  eV     1   --> A'             
     e(  6 -  6) =      9.92390  eV     1   --> A'             
     e(  7 -  7) =     11.27185  eV     1   --> A'             
     e(  8 -  8) =     11.70757  eV     1   --> A''            
     e(  9 -  9) =     15.26511  eV     1   --> A'             
     e( 10 - 10) =     15.35345  eV     1   --> A''            
     e( 11 - 11) =     17.13374  eV     1   --> A'             
     e( 12 - 12) =     18.92833  eV     1   --> A'             

 **************************************************************************

 **************************************************************************

                    xk=(   0.46667,   0.11667,   0.11667  )

     Band symmetry, C_s (m)     point group:

     e(  1 -  1) =     -4.69333  eV     1   --> A'             
     e(  2 -  2) =      2.56059  eV     1   --> A'             
     e(  3 -  3) =      4.48819  eV     1   --> A'             
     e(  4 -  4) =      4.60730  eV     1   --> A''            
     e(  5 -  5) =      8.04562  eV     1   --> A'             
     e(  6 -  6) =     10.07443  eV     1   --> A'             
     e(  7 -  7) =     11.08983  eV     1   --> A'             
     e(  8 -  8) =     11.51228  eV     1   --> A''            
     e(  9 -  9) =     14.83168  eV     1   --> A'             
     e( 10 - 10) =     15.11086  eV     1   --> A''            
     e( 11 - 11) =     16.97208  eV     1   --> A'             
     e( 12 - 12) =     18.59523  eV     1   --> A'             

 **************************************************************************

 **************************************************************************

                    xk=(   0.43333,   0.10833,   0.10833  )

     Band symmetry, C_s (m)     point group:

     e(  1 -  1) =     -4.83872  eV     1   --> A'             
     e(  2 -  2) =      2.86820  eV     1   --> A'             
     e(  3 -  3) =      4.68798  eV     1   --> A'             
     e(  4 -  4) =      4.73065  eV     1   --> A''            
     e(  5 -  5) =      8.10607  eV     1   --> A'             
     e(  6 -  6) =     10.21960  eV     1   --> A'             
     e(  7 -  7) =     10.93681  eV     1   --> A'             
     e(  8 -  8) =     11.30588  eV     1   --> A''            
     e(  9 -  9) =     14.41041  eV     1   --> A'             
     e( 10 - 10) =     14.89885  eV     1   --> A''            
     e( 11 - 11) =     16.78893  eV     1   --> A'             
     e( 12 - 12) =     18.29455  eV     1   --> A'             

 **************************************************************************

 **************************************************************************

                    xk=(   0.40000,   0.10000,   0.10000  )

     Band symmetry, C_s (m)     point group:

     e(  1 -  1) =     -4.97414  eV     1   --> A'             
     e(  2 -  2) =      3.18096  eV     1   --> A'             
     e(  3 -  3) =      4.86158  eV     1   --> A''            
     e(  4 -  4) =      4.88370  eV     1   --> A'             
     e(  5 -  5) =      8.16824  eV     1   --> A'             
     e(  6 -  6) =     10.30570  eV     1   --> A'             
     e(  7 -  7) =     10.85977  eV     1   --> A'             
     e(  8 -  8) =     11.08887  eV     1   --> A''            
     e(  9 -  9) =     14.00677  eV     1   --> A'             
     e( 10 - 10) =     14.71707  eV     1   --> A''            
     e( 11 - 11) =     16.57783  eV     1   --> A'             
     e( 12 - 12) =     18.04027  eV     1   --> A'             

 **************************************************************************

 **************************************************************************

                    xk=(   0.36667,   0.09167,   0.09167  )

     Band symmetry, C_s (m)     point group:

     e(  1 -  1) =     -5.09937  eV     1   --> A'             
     e(  2 -  2) =      3.49813  eV     1   --> A'             
     e(  3 -  3) =      4.99946  eV     1   --> A''            
     e(  4 -  4) =      5.07416  eV     1   --> A'             
     e(  5 -  5) =      8.23315  eV     1   --> A'             
     e(  6 -  6) =     10.26593  eV     1   --> A'             
     e(  7 -  7) =     10.86265  eV     1   --> A''            
     e(  8 -  8) =     10.91479  eV     1   --> A'             
     e(  9 -  9) =     13.63015  eV     1   --> A'             
     e( 10 - 10) =     14.56430  eV     1   --> A''            
     e( 11 - 11) =     16.33636  eV     1   --> A'             
     e( 12 - 12) =     17.84002  eV     1   --> A'             

 **************************************************************************

 **************************************************************************

                    xk=(   0.33333,   0.08333,   0.08333  )

     Band symmetry, C_s (m)     point group:

     e(  1 -  1) =     -5.21421  eV     1   --> A'             
     e(  2 -  2) =      3.81875  eV     1   --> A'             
     e(  3 -  3) =      5.14349  eV     1   --> A''            
     e(  4 -  4) =      5.25810  eV     1   --> A'             
     e(  5 -  5) =      8.30139  eV     1   --> A'             
     e(  6 -  6) =     10.13953  eV     1   --> A'             
     e(  7 -  7) =     10.62949  eV     1   --> A''            
     e(  8 -  8) =     11.04395  eV     1   --> A'             
     e(  9 -  9) =     13.29790  eV     1   --> A'             
     e( 10 - 10) =     14.43849  eV     1   --> A''            
     e( 11 - 11) =     16.06956  eV     1   --> A'             
     e( 12 - 12) =     17.69273  eV     1   --> A'             

 **************************************************************************

 **************************************************************************

                    xk=(   0.30000,   0.07500,   0.07500  )

     Band symmetry, C_s (m)     point group:

     e(  1 -  1) =     -5.31853  eV     1   --> A'             
     e(  2 -  2) =      4.14151  eV     1   --> A'             
     e(  3 -  3) =      5.29258  eV     1   --> A''            
     e(  4 -  4) =      5.43418  eV     1   --> A'             
     e(  5 -  5) =      8.37303  eV     1   --> A'             
     e(  6 -  6) =      9.98525  eV     1   --> A'             
     e(  7 -  7) =     10.39231  eV     1   --> A''            
     e(  8 -  8) =     11.15543  eV     1   --> A'             
     e(  9 -  9) =     13.04195  eV     1   --> A'             
     e( 10 - 10) =     14.33707  eV     1   --> A''            
     e( 11 - 11) =     15.78806  eV     1   --> A'             
     e( 12 - 12) =     17.59099  eV     1   --> A'             

 **************************************************************************

 **************************************************************************

                    xk=(   0.26667,   0.06667,   0.06667  )

     Band symmetry, C_s (m)     point group:

     e(  1 -  1) =     -5.41218  eV     1   --> A'             
     e(  2 -  2) =      4.46469  eV     1   --> A'             
     e(  3 -  3) =      5.44533  eV     1   --> A''            
     e(  4 -  4) =      5.60092  eV     1   --> A'             
     e(  5 -  5) =      8.44754  eV     1   --> A'             
     e(  6 -  6) =      9.82489  eV     1   --> A'             
     e(  7 -  7) =     10.15458  eV     1   --> A''            
     e(  8 -  8) =     11.17979  eV     1   --> A'             
     e(  9 -  9) =     12.90886  eV     1   --> A'             
     e( 10 - 10) =     14.25716  eV     1   --> A''            
     e( 11 - 11) =     15.50390  eV     1   --> A'             
     e( 12 - 12) =     17.52557  eV     1   --> A'             

 **************************************************************************

 **************************************************************************

                    xk=(   0.23333,   0.05833,   0.05833  )

     Band symmetry, C_s (m)     point group:

     e(  1 -  1) =     -5.49504  eV     1   --> A'             
     e(  2 -  2) =      4.78581  eV     1   --> A'             
     e(  3 -  3) =      5.59978  eV     1   --> A''            
     e(  4 -  4) =      5.75665  eV     1   --> A'             
     e(  5 -  5) =      8.52370  eV     1   --> A'             
     e(  6 -  6) =      9.66607  eV     1   --> A'             
     e(  7 -  7) =      9.92024  eV     1   --> A''            
     e(  8 -  8) =     11.08108  eV     1   --> A'             
     e(  9 -  9) =     12.92615  eV     1   --> A'             
     e( 10 - 10) =     14.19574  eV     1   --> A''            
     e( 11 - 11) =     15.22779  eV     1   --> A'             
     e( 12 - 12) =     17.48823  eV     1   --> A'             

 **************************************************************************

 **************************************************************************

                    xk=(   0.20000,   0.05000,   0.05000  )

     Band symmetry, C_s (m)     point group:

     e(  1 -  1) =     -5.56704  eV     1   --> A'             
     e(  2 -  2) =      5.10138  eV     1   --> A'             
     e(  3 -  3) =      5.75330  eV     1   --> A''            
     e(  4 -  4) =      5.89948  eV     1   --> A'             
     e(  5 -  5) =      8.59963  eV     1   --> A'             
     e(  6 -  6) =      9.51208  eV     1   --> A'             
     e(  7 -  7) =      9.69380  eV     1   --> A''            
     e(  8 -  8) =     10.88495  eV     1   --> A'             
     e(  9 -  9) =     13.06422  eV     1   --> A'             
     e( 10 - 10) =     14.14986  eV     1   --> A''            
     e( 11 - 11) =     14.96873  eV     1   --> A'             
     e( 12 - 12) =     17.47216  eV     1   --> A'             

 **************************************************************************

 **************************************************************************

                    xk=(   0.16667,   0.04167,   0.04167  )

     Band symmetry, C_s (m)     point group:

     e(  1 -  1) =     -5.62808  eV     1   --> A'             
     e(  2 -  2) =      5.40625  eV     1   --> A'             
     e(  3 -  3) =      5.90223  eV     1   --> A''            
     e(  4 -  4) =      6.02722  eV     1   --> A'             
     e(  5 -  5) =      8.67271  eV     1   --> A'             
     e(  6 -  6) =      9.36468  eV     1   --> A'             
     e(  7 -  7) =      9.48054  eV     1   --> A''            
     e(  8 -  8) =     10.64402  eV     1   --> A'             
     e(  9 -  9) =     13.26825  eV     1   --> A'             
     e( 10 - 10) =     14.11668  eV     1   --> A''            
     e( 11 - 11) =     14.73436  eV     1   --> A'             
     e( 12 - 12) =     17.47164  eV     1   --> A'             

 **************************************************************************

 **************************************************************************

                    xk=(   0.13333,   0.03333,   0.03333  )

     Band symmetry, C_s (m)     point group:

     e(  1 -  1) =     -5.67812  eV     1   --> A'             
     e(  2 -  2) =      5.69272  eV     1   --> A'             
     e(  3 -  3) =      6.04155  eV     1   --> A''            
     e(  4 -  4) =      6.13738  eV     1   --> A'             
     e(  5 -  5) =      8.73973  eV     1   --> A'             
     e(  6 -  6) =      9.22532  eV     1   --> A'             
     e(  7 -  7) =      9.28682  eV     1   --> A''            
     e(  8 -  8) =     10.40024  eV     1   --> A'             
     e(  9 -  9) =     13.49485  eV     1   --> A'             
     e( 10 - 10) =     14.09360  eV     1   --> A''            
     e( 11 - 11) =     14.53142  eV     1   --> A'             
     e( 12 - 12) =     17.48140  eV     1   --> A'             

 **************************************************************************

 **************************************************************************

                    xk=(   0.10000,   0.02500,   0.02500  )

     Band symmetry, C_s (m)     point group:

     e(  1 -  1) =     -5.71708  eV     1   --> A'             
     e(  2 -  2) =      5.94918  eV     1   --> A'             
     e(  3 -  3) =      6.16453  eV     1   --> A''            
     e(  4 -  4) =      6.22725  eV     1   --> A'             
     e(  5 -  5) =      8.79711  eV     1   --> A'             
     e(  6 -  6) =      9.09680  eV     1   --> A'             
     e(  7 -  7) =      9.12045  eV     1   --> A''            
     e(  8 -  8) =     10.18282  eV     1   --> A'             
     e(  9 -  9) =     13.71277  eV     1   --> A'             
     e( 10 - 10) =     14.07832  eV     1   --> A''            
     e( 11 - 11) =     14.36599  eV     1   --> A'             
     e( 12 - 12) =     17.49637  eV     1   --> A'             

 **************************************************************************

 **************************************************************************

                    xk=(   0.06667,   0.01667,   0.01667  )

     Band symmetry, C_s (m)     point group:

     e(  1 -  1) =     -5.74495  eV     1   --> A'             
     e(  2 -  2) =      6.15870  eV     1   --> A'             
     e(  3 -  3) =      6.26273  eV     1   --> A''            
     e(  4 -  4) =      6.29406  eV     1   --> A'             
     e(  5 -  5) =      8.84123  eV     1   --> A'             
     e(  6 -  6) =      8.98619  eV     1   --> A'             
     e(  7 -  7) =      8.99071  eV     1   --> A''            
     e(  8 -  8) =     10.01328  eV     1   --> A'             
     e(  9 -  9) =     13.89555  eV     1   --> A'             
     e( 10 - 10) =     14.06889  eV     1   --> A''            
     e( 11 - 11) =     14.24341  eV     1   --> A'             
     e( 12 - 12) =     17.51163  eV     1   --> A'             

 **************************************************************************

 **************************************************************************

                    xk=(   0.03333,   0.00833,   0.00833  )

     Band symmetry, C_s (m)     point group:

     e(  1 -  1) =     -5.76168  eV     1   --> A'             
     e(  2 -  2) =      6.29926  eV     1   --> A'             
     e(  3 -  3) =      6.32688  eV     1   --> A''            
     e(  4 -  4) =      6.33532  eV     1   --> A'             
     e(  5 -  5) =      8.86906  eV     1   --> A'             
     e(  6 -  6) =      8.90740  eV     1   --> A''            
     e(  7 -  7) =      8.90761  eV     1   --> A'             
     e(  8 -  8) =      9.90643  eV     1   --> A'             
     e(  9 -  9) =     14.01862  eV     1   --> A'             
     e( 10 - 10) =     14.06385  eV     1   --> A''            
     e( 11 - 11) =     14.16796  eV     1   --> A'             
     e( 12 - 12) =     17.52287  eV     1   --> A'             

 **************************************************************************

 **************************************************************************

                    xk=(   0.00000,   0.00000,   0.00000  )

     point group O_h (m-3m) 
     there are 10 classes
     the character table:

       E     8C3   3C2   6C4   6C2'  i     8S6   3s_h  6S4   6s_d 
A_1g   1.00  1.00  1.00  1.00  1.00  1.00  1.00  1.00  1.00  1.00
A_2g   1.00  1.00  1.00 -1.00 -1.00  1.00  1.00  1.00 -1.00 -1.00
E_g    2.00 -1.00  2.00  0.00  0.00  2.00 -1.00  2.00  0.00  0.00
T_1g   3.00  0.00 -1.00  1.00 -1.00  3.00  0.00 -1.00  1.00 -1.00
T_2g   3.00  0.00 -1.00 -1.00  1.00  3.00  0.00 -1.00 -1.00  1.00
A_1u   1.00  1.00  1.00  1.00  1.00 -1.00 -1.00 -1.00 -1.00 -1.00
A_2u   1.00  1.00  1.00 -1.00 -1.00 -1.00 -1.00 -1.00  1.00  1.00
E_u    2.00 -1.00  2.00  0.00  0.00 -2.00  1.00 -2.00  0.00  0.00
T_1u   3.00  0.00 -1.00  1.00 -1.00 -3.00  0.00  1.00 -1.00  1.00
T_2u   3.00  0.00 -1.00 -1.00  1.00 -3.00  0.00  1.00  1.00 -1.00

     the symmetry operations in each class and the name of the first element:

     E        1
                                                                 
     8C3     17   19   20   18   24   21   22   23
                                                                 
     3C2      2    4    3
                                                                 
     6C4      7    8   15   16   12   11
                                                                 
     6C2'     5    6   14   13   10    9
                                                                 
     i       25
                                                                 
     8S6     41   43   44   42   48   45   46   47
                                                                 
     3s_h    26   28   27
                                                                 
     6S4     31   32   39   40   36   35
                                                                 
     6s_d    29   30   38   37   34   33
                                                                 

     Band symmetry, O_h (m-3m)  point group:

     e(  1 -  1) =     -5.76725  eV     1   --> A_1g G_1   G_1+
     e(  2 -  4) =      6.34929  eV     3   --> T_2g G_25' G_5+
     e(  5 -  7) =      8.87857  eV     3   --> T_1u G_15  G_4-
     e(  8 -  8) =      9.87008  eV     1   --> A_2u G_2'  G_2-
     e(  9 - 10) =     14.06228  eV     2   --> E_u  G_12' G_3-
     e( 11 - 11) =     14.14248  eV     1   --> A_1g G_1   G_1+
     e( 12 - 12) =     17.52699  eV     1   -->   ?

 **************************************************************************
 
     BANDS        :      4.03s CPU      4.68s WALL

 
   This run was terminated on:   2:15:36   3Apr2022            

=------------------------------------------------------------------------------=
   JOB DONE.
=------------------------------------------------------------------------------=
